8
Lattice="5.365828 0 0 0 5.365828 0 0 0 5.365828 " PBC="1 1 1" Properties=species:S:1:pos:R:3:force:R:3 Energy="-34.6256457814"
Si    0.00000e+00   0.00000e+00   0.00000e+00 -1.11577e-14  -1.11530e-14  -1.11530e-14
Si    2.68291e+00   2.68291e+00   0.00000e+00 -7.32747e-15  -7.29972e-15  -1.34337e-14
Si    0.00000e+00   2.68291e+00   2.68291e+00 -7.49401e-15  -7.31635e-15  -7.35436e-15
Si    2.68291e+00   0.00000e+00   2.68291e+00 -7.35523e-15  -7.49401e-15  -7.38298e-15
Si    1.34146e+00   1.34146e+00   1.34146e+00 -8.88178e-16  -8.95605e-16  -9.11633e-16
Si    4.02437e+00   4.02437e+00   1.34146e+00  1.93427e-14   1.93587e-14  -4.41566e-15
Si    1.34146e+00   4.02437e+00   4.02437e+00 -1.58207e-15   1.64868e-14   2.22877e-14
Si    4.02437e+00   1.34146e+00   4.02437e+00  1.64839e-14  -1.58459e-15   2.23286e-14
