64
Lattice="11.448548 0 0 0 11.448548 0 0 0 11.448548 " PBC="1 1 1" Properties=species:S:1:pos:R:3:force:R:3 Energy="-267.884055019"
Si    1.07818e-02   4.79063e-05   2.09402e-03 -1.23526e-01   8.18032e-02  -7.14457e-02
Si    2.86466e+00   2.86710e+00   5.63722e-03  1.19549e-02  -8.60955e-02  -9.21634e-02
Si    1.14403e+01   2.86779e+00   2.86169e+00  1.62827e-01   2.44630e-03  -4.77307e-02
Si    2.86347e+00   6.42488e-03   2.85889e+00  1.98197e-02  -1.15327e-01   5.16990e-02
Si    1.44016e+00   1.42712e+00   1.43641e+00 -1.26989e-01   1.54775e-01  -3.58983e-02
Si    4.29279e+00   4.29723e+00   1.43078e+00  4.82048e-03   5.93240e-03  -1.68161e-02
Si    1.42792e+00   4.30062e+00   4.29765e+00  6.20610e-02  -1.20059e-01  -1.22130e-01
Si    4.28627e+00   1.42823e+00   4.29346e+00  1.20338e-01   4.37693e-02  -5.38970e-02
Si    5.72548e+00   2.80157e-03   1.14376e+01 -5.25135e-02  -9.75233e-02   1.78691e-01
Si    8.58938e+00   2.85458e+00   5.97397e-03 -7.48380e-02   5.59030e-02  -8.78261e-02
Si    5.71893e+00   2.86942e+00   2.86011e+00 -1.44009e-02  -1.19854e-01   1.86505e-02
Si    8.59546e+00   1.29237e-03   2.86850e+00 -9.95344e-02  -3.33942e-02  -1.08666e-01
Si    7.14793e+00   1.42860e+00   1.43061e+00  8.32784e-02  -4.21847e-03   6.46532e-02
Si    1.00123e+01   4.29662e+00   1.42690e+00  2.66649e-02  -5.31841e-02   5.90975e-02
Si    7.15196e+00   4.29309e+00   4.28690e+00  6.81795e-02   3.40291e-02  -2.19201e-02
Si    1.00244e+01   1.43508e+00   4.28746e+00 -6.54240e-02  -2.68220e-02   1.05322e-01
Si    1.14421e+01   5.72630e+00   8.09444e-03  5.37262e-02  -4.90064e-02  -1.61494e-01
Si    2.86658e+00   8.58639e+00   1.14446e+01 -6.67312e-02   8.46987e-04  -5.02775e-02
Si    1.14447e+01   8.59286e+00   2.85735e+00  1.31359e-01  -1.18094e-01   6.78485e-03
Si    2.85754e+00   5.72560e+00   2.85386e+00  3.99211e-02  -3.12827e-02   8.71801e-02
Si    1.43633e+00   7.14961e+00   1.42108e+00 -1.01556e-01   1.60182e-01   9.50790e-02
Si    4.28729e+00   1.00151e+01   1.43102e+00  8.83846e-02   1.17756e-01  -7.62688e-02
Si    1.43507e+00   1.00238e+01   4.29085e+00 -1.10935e-01   1.06844e-02   3.91526e-02
Si    4.29349e+00   7.14937e+00   4.28849e+00 -6.54665e-02   1.29364e-01   1.02632e-02
Si    5.72988e+00   5.71604e+00   1.14448e+01 -5.35693e-02   4.58887e-02   3.45403e-02
Si    8.58516e+00   8.59402e+00   3.03192e-03  4.50997e-02  -1.56341e-01  -8.32750e-02
Si    5.72232e+00   8.59360e+00   2.85923e+00  5.46719e-02  -1.40814e-01   1.08251e-02
Si    8.59317e+00   5.72725e+00   2.85879e+00 -1.05911e-01  -4.95714e-02   2.26825e-02
Si    7.15570e+00   7.14865e+00   1.42507e+00 -5.43031e-03   1.16955e-01   6.74861e-02
Si    1.00217e+01   1.00181e+01   1.42440e+00 -2.94307e-02   7.45680e-02   6.94602e-02
Si    7.16089e+00   1.00121e+01   4.29817e+00  2.87596e-03   4.21192e-02  -4.71015e-02
Si    1.00230e+01   7.14818e+00   4.29219e+00  1.84225e-02   1.06221e-01  -1.28080e-02
Si    1.14438e+01   5.32471e-03   5.73343e+00  1.37570e-01   1.28765e-02  -1.44065e-01
Si    2.86173e+00   2.85592e+00   5.71930e+00 -3.27297e-03   1.50785e-01   9.19644e-02
Si    1.14468e+01   2.86101e+00   8.59000e+00 -7.81768e-03   3.16179e-02  -8.96172e-02
Si    2.86672e+00   8.44160e-04   8.58141e+00 -1.00788e-02   1.02682e-02   8.05533e-02
Si    1.43669e+00   1.43436e+00   7.16034e+00 -7.36427e-02  -1.77795e-02  -3.14334e-02
Si    4.29156e+00   4.29997e+00   7.15870e+00  1.51919e-02  -1.35114e-01  -1.39344e-01
Si    1.42579e+00   4.29185e+00   1.00188e+01  1.45323e-02   3.25873e-02   5.66492e-02
Si    4.30272e+00   1.42978e+00   1.00160e+01 -1.48276e-01   7.30851e-02  -2.44486e-02
Si    5.72082e+00   1.14437e+01   5.72031e+00 -2.22912e-02  -1.88301e-02   1.64948e-02
Si    8.58009e+00   2.85783e+00   5.71370e+00  1.37408e-02  -4.27821e-03   3.42778e-02
Si    5.72489e+00   2.85816e+00   8.57964e+00 -3.36545e-03   7.04871e-02   4.28291e-02
Si    8.57910e+00   7.42396e-03   8.59187e+00  5.03752e-02  -1.25971e-01  -1.45334e-01
Si    7.14839e+00   1.42771e+00   7.14886e+00  4.69509e-02   8.68230e-03  -1.76949e-03
Si    1.00094e+01   4.28551e+00   7.14951e+00  8.99227e-02   7.02339e-02  -3.63754e-03
Si    7.15472e+00   4.28859e+00   1.00184e+01  6.13725e-02  -6.68827e-02  -4.04516e-02
Si    1.00147e+01   1.43292e+00   1.00094e+01  8.04951e-02  -5.94953e-02   1.78392e-01
Si    8.58929e-03   5.72484e+00   5.72160e+00 -1.61493e-01  -4.90088e-02   1.02722e-01
Si    2.85475e+00   8.58801e+00   5.72733e+00  5.85130e-02  -1.05535e-01  -7.67527e-02
Si    1.14446e+01   8.59289e+00   8.57996e+00  1.43314e-02  -8.79650e-02   4.38201e-02
Si    2.85768e+00   5.71903e+00   8.58242e+00  4.43208e-02   6.98934e-02   1.41196e-01
Si    1.42901e+00   7.14865e+00   7.15914e+00 -2.62063e-03   1.11509e-01  -3.29927e-02
Si    4.28691e+00   1.00129e+01   7.15380e+00  1.01180e-01   7.88006e-03   4.21951e-04
Si    1.42761e+00   1.00238e+01   1.00123e+01  1.01304e-01  -8.17636e-02   6.34607e-03
Si    4.30034e+00   7.15156e+00   1.00197e+01 -4.89002e-02  -1.28504e-02  -9.83004e-02
Si    5.72506e+00   5.72263e+00   5.71546e+00 -2.07897e-02   3.79501e-03   1.09724e-01
Si    8.59682e+00   8.58311e+00   5.72652e+00 -1.32575e-01  -9.88449e-02   9.02071e-03
Si    5.73147e+00   8.58323e+00   8.58126e+00 -1.20821e-01   5.64758e-02   1.08633e-01
Si    8.58182e+00   5.72264e+00   8.58305e+00  2.26646e-02  -8.96860e-02   3.57413e-02
Si    7.14916e+00   7.14893e+00   7.16415e+00  1.16619e-01   4.84045e-02  -2.16399e-01
Si    1.00180e+01   1.00197e+01   7.14622e+00 -8.85286e-02   6.44312e-02   1.80453e-01
Si    7.15475e+00   1.00177e+01   1.00221e+01  6.10846e-03  -1.46769e-03  -9.68774e-02
Si    1.00161e+01   7.14799e+00   1.00112e+01 -2.88687e-02   1.50803e-01   7.03356e-02
