64
Lattice="10.145108 0 0 0 10.145108 0 0 0 10.145108 " PBC="1 1 1" Properties=species:S:1:pos:R:3:force:R:3 Energy="-259.381889856"
Si    1.01391e+01   3.41895e-03   1.01396e+01  9.99739e-02  -5.58199e-02   2.90880e-01
Si    2.54050e+00   2.54110e+00   3.48536e-03  1.48283e-01  -1.41631e-01   8.48320e-03
Si    8.10570e-03   2.53727e+00   2.53390e+00 -1.72538e-01  -7.97215e-03   2.76398e-03
Si    2.54161e+00   9.28411e-03   2.52647e+00 -7.03222e-02  -1.24624e-01   2.88011e-01
Si    1.27502e+00   1.27092e+00   1.27248e+00 -1.74925e-01  -1.88927e-02  -2.88173e-01
Si    3.80851e+00   3.81165e+00   1.27258e+00  7.33122e-02  -1.43086e-01  -2.59124e-02
Si    1.26446e+00   3.79777e+00   3.80950e+00  1.49285e-01   1.99247e-01  -1.65524e-01
Si    3.80497e+00   1.27293e+00   3.79911e+00 -2.16530e-02  -1.18838e-01   6.20370e-02
Si    5.07107e+00   1.01388e+01   3.86874e-03  6.12110e-02   2.15152e-02  -1.36816e-01
Si    7.60953e+00   2.53072e+00   6.92944e-04 -6.75910e-02   1.63895e-01  -1.45581e-01
Si    5.07619e+00   2.53086e+00   2.53834e+00  7.62627e-03   2.22480e-01  -5.69017e-02
Si    7.61319e+00   1.01400e+01   2.53802e+00 -1.02907e-01   2.06899e-01  -6.57398e-02
Si    6.33628e+00   1.27138e+00   1.26303e+00  1.40712e-01  -2.37933e-01   1.53702e-01
Si    8.87728e+00   3.80380e+00   1.26439e+00  4.10528e-02   3.30584e-02   8.38859e-02
Si    6.35049e+00   3.80064e+00   3.80354e+00 -2.35362e-01  -1.80069e-02   9.53617e-02
Si    8.88230e+00   1.26928e+00   3.80341e+00 -6.54034e-02   7.34266e-02  -5.59974e-02
Si    5.41940e-03   5.08187e+00   6.50849e-03 -1.21002e-02  -2.24896e-01  -1.02419e-01
Si    2.53296e+00   7.60587e+00   1.01423e+01  4.84637e-02   1.42460e-01  -2.66021e-02
Si    5.87921e-03   7.61262e+00   2.52797e+00  2.34978e-02  -2.61433e-03   3.42812e-01
Si    2.53913e+00   5.07298e+00   2.53649e+00 -1.89734e-01   2.49377e-02   5.87291e-02
Si    1.26891e+00   6.34846e+00   1.26410e+00  1.30453e-01  -1.39236e-01   1.60191e-01
Si    3.79675e+00   8.88059e+00   1.26812e+00  1.49111e-01  -2.58275e-01   2.92279e-02
Si    1.27690e+00   8.88323e+00   3.81054e+00 -1.70387e-01   9.49909e-02  -2.38653e-01
Si    3.81327e+00   6.33800e+00   3.80007e+00 -2.50063e-01  -3.36124e-03   1.78492e-01
Si    5.07453e+00   5.07455e+00   1.01432e+01 -7.43121e-03   4.14655e-02   3.66564e-02
Si    7.60550e+00   7.61293e+00   3.67774e-03  7.59572e-02  -2.60825e-02  -1.25281e-01
Si    5.07227e+00   7.60446e+00   2.54245e+00  7.51143e-02   3.29826e-01  -1.27133e-01
Si    7.60395e+00   5.06861e+00   2.53838e+00  1.18777e-01   1.33362e-01  -1.72146e-01
Si    6.34016e+00   6.34753e+00   1.26677e+00 -1.61318e-02  -1.64379e-01   7.55122e-02
Si    8.87654e+00   8.86988e+00   1.27455e+00  4.30854e-02   1.99191e-01  -2.18716e-01
Si    6.34786e+00   8.88015e+00   3.81202e+00 -1.80157e-01  -1.26040e-01  -1.54941e-01
Si    8.87262e+00   6.34507e+00   3.80123e+00  1.76451e-01  -8.57586e-02  -7.01144e-02
Si    1.01420e+01   7.17370e-03   5.07621e+00  1.28902e-01  -1.05359e-01   5.04979e-02
Si    2.53359e+00   2.53398e+00   5.06687e+00  1.46200e-01   6.27117e-02   1.31290e-01
Si    2.40423e-03   2.54122e+00   7.60399e+00  1.31366e-02  -7.60533e-02   2.99095e-01
Si    2.54256e+00   1.01402e+01   7.61132e+00 -1.83486e-01   1.43315e-01  -2.34754e-02
Si    1.27238e+00   1.27586e+00   6.34379e+00  1.57228e-02  -2.03755e-01   2.18705e-03
Si    3.80692e+00   3.80341e+00   6.33998e+00 -1.71182e-01  -1.47014e-02  -1.19975e-01
Si    1.27733e+00   3.80420e+00   8.88322e+00 -1.45068e-01   1.61853e-01  -1.41307e-01
Si    3.80850e+00   1.26229e+00   8.87503e+00 -1.54129e-02   1.50861e-01   9.99076e-02
Si    5.06540e+00   1.01400e+01   5.06777e+00  1.95712e-01   2.64167e-01   5.51225e-02
Si    7.61592e+00   2.54123e+00   5.07467e+00  1.19934e-02  -1.44620e-01  -7.68495e-02
Si    5.07016e+00   2.54052e+00   7.60384e+00  1.02897e-01  -1.75681e-01   5.08008e-02
Si    7.61178e+00   1.25410e-03   7.61003e+00 -4.42678e-02  -8.37287e-02  -1.32153e-01
Si    6.34681e+00   1.26986e+00   6.33639e+00 -1.70140e-01  -6.05907e-02  -1.65969e-02
Si    8.87667e+00   3.80044e+00   6.34549e+00  1.03956e-01   2.53688e-01  -1.56820e-01
Si    6.33750e+00   3.80723e+00   8.87239e+00  1.32940e-01  -7.09456e-02   5.13669e-02
Si    8.87422e+00   1.26489e+00   8.87537e+00  9.92660e-02   1.94970e-01  -9.82280e-02
Si    5.64426e-03   5.07448e+00   5.07050e+00 -2.40530e-01  -1.58200e-02   9.18091e-02
Si    2.53072e+00   7.60625e+00   5.07062e+00  3.18950e-01   2.59694e-02   1.32243e-01
Si    1.88451e-03   7.60596e+00   7.60482e+00 -1.05971e-01   1.24121e-01   1.57672e-01
Si    2.54329e+00   5.07716e+00   7.60561e+00 -1.65866e-01  -1.34805e-01   1.38154e-02
Si    1.26435e+00   6.34434e+00   6.34488e+00  1.35235e-01  -1.25613e-01  -1.04576e-01
Si    3.80939e+00   8.88500e+00   6.34424e+00 -2.31368e-01  -2.67404e-01  -1.97712e-01
Si    1.26479e+00   8.87907e+00   8.87768e+00  1.84180e-02  -6.17994e-02  -6.05031e-02
Si    3.80024e+00   6.33704e+00   8.87731e+00  1.47826e-01   1.47892e-01  -1.51718e-02
Si    5.07028e+00   5.06808e+00   5.07151e+00  1.98701e-01  -1.24633e-02  -2.17164e-02
Si    7.60404e+00   7.60273e+00   5.07073e+00  5.05341e-02   2.67349e-02   1.07017e-01
Si    5.06784e+00   7.61358e+00   7.60604e+00  6.65272e-02  -2.08415e-01   4.69022e-02
Si    7.60694e+00   5.07575e+00   7.60152e+00  1.75408e-01  -5.97829e-02   2.89549e-01
Si    6.34245e+00   6.33521e+00   6.34387e+00 -2.32110e-01   1.40508e-01  -1.28541e-01
Si    8.87410e+00   8.87096e+00   6.33726e+00  9.84625e-03   6.79442e-02   2.03867e-02
Si    6.34106e+00   8.87538e+00   8.86952e+00 -2.96219e-02   5.75395e-02   1.42039e-01
Si    8.88205e+00   6.34207e+00   8.88374e+00 -1.62812e-01   9.95319e-03  -1.38169e-01
