64
Lattice="11.644064 0 0 0 11.644064 0 0 0 11.644064 " PBC="1 1 1" Properties=species:S:1:pos:R:3:force:R:3 Energy="-260.975630085"
Si    1.16423e+01   1.16424e+01   1.16420e+01  3.59461e-02   2.13248e-02   5.55850e-02
Si    2.91250e+00   2.90943e+00   9.55290e-04 -3.69303e-02   2.53053e-02  -1.09773e-02
Si    5.19429e-04   2.91056e+00   2.91309e+00 -1.78228e-02   1.13733e-02  -1.72731e-02
Si    2.91094e+00   1.16426e+01   2.91301e+00  2.69564e-03   3.04472e-02  -1.17342e-02
Si    1.45725e+00   1.45709e+00   1.45737e+00 -2.94813e-02  -4.31924e-02  -1.86471e-02
Si    4.36395e+00   4.36540e+00   1.45364e+00  2.66814e-02   3.20554e-02   2.33591e-02
Si    1.45491e+00   4.36879e+00   4.36529e+00 -3.05892e-03  -1.66098e-02   1.03267e-02
Si    4.36757e+00   1.45759e+00   4.36522e+00 -1.74673e-02  -2.45763e-02   1.92454e-02
Si    5.82214e+00   4.56785e-04   1.16421e+01 -5.17716e-03   2.32664e-02   4.58720e-02
Si    8.73444e+00   2.91161e+00   1.16414e+01  1.98052e-03  -3.81133e-03   2.81488e-02
Si    5.82114e+00   2.91201e+00   2.90929e+00  2.59652e-02   1.41207e-02   1.86046e-02
Si    8.73094e+00   1.16437e+01   2.90984e+00  3.12435e-02  -9.20332e-03   1.62394e-02
Si    7.28044e+00   1.45783e+00   1.45704e+00 -4.00112e-02  -1.60954e-02  -4.56978e-02
Si    1.01869e+01   4.36690e+00   1.45686e+00  4.16925e-02  -1.53183e-02  -2.97665e-02
Si    7.28015e+00   4.36647e+00   4.36845e+00 -4.32889e-02   7.27170e-04  -2.11221e-02
Si    1.01874e+01   1.45404e+00   4.36639e+00  6.82084e-03   5.66052e-03   8.42869e-03
Si    1.54765e-03   5.82371e+00   8.50307e-04 -5.02149e-02  -1.50340e-02  -3.63850e-03
Si    2.90985e+00   8.73507e+00   1.16416e+01 -1.46070e-02  -3.92034e-02   4.85109e-02
Si    1.16431e+01   8.73397e+00   2.90937e+00  6.47489e-03  -6.29678e-03   3.76593e-02
Si    2.90973e+00   5.82281e+00   2.91387e+00  1.98935e-02  -3.63943e-03  -4.09346e-02
Si    1.45324e+00   7.27552e+00   1.45756e+00  3.97918e-02   4.59730e-02  -2.27407e-02
Si    4.36400e+00   1.01892e+01   1.45456e+00  2.38066e-02   5.04261e-04  -6.34406e-03
Si    1.45499e+00   1.01904e+01   4.36831e+00  2.02296e-02  -5.50429e-02  -3.55385e-02
Si    4.36655e+00   7.28043e+00   4.36488e+00  8.39997e-03  -4.03927e-02   1.32323e-02
Si    5.82434e+00   5.82026e+00   1.16424e+01 -2.35489e-02   5.41452e-03   1.87044e-02
Si    8.73179e+00   8.73462e+00   1.16429e+01  8.63668e-03  -3.66725e-02   1.58858e-02
Si    5.82071e+00   8.73262e+00   2.90887e+00  2.19768e-02   2.90473e-02   1.79274e-02
Si    8.73266e+00   5.81990e+00   2.90852e+00  3.77029e-03   3.18459e-02   4.81529e-02
Si    7.27772e+00   7.27675e+00   1.45649e+00 -2.72245e-03   3.99089e-03  -3.09719e-02
Si    1.01880e+01   1.01865e+01   1.45481e+00 -1.23243e-02   2.96846e-02  -5.07750e-03
Si    7.27891e+00   1.01885e+01   4.36869e+00 -4.25912e-02  -8.27068e-03  -3.95254e-02
Si    1.01874e+01   7.27836e+00   4.36702e+00  1.33316e-02  -2.01435e-02  -3.91623e-02
Si    2.84465e-03   1.16419e+01   5.81934e+00 -3.45035e-02   4.93383e-02   4.34820e-02
Si    2.90881e+00   2.91337e+00   5.81949e+00  1.57659e-02  -1.58809e-02   3.93290e-02
Si    1.16418e+01   2.90865e+00   8.73353e+00  3.06901e-03   5.32343e-02   8.90409e-03
Si    2.91224e+00   1.70033e-03   8.73396e+00 -8.53958e-03  -1.23763e-02  -9.33782e-03
Si    1.45315e+00   1.45655e+00   7.28022e+00  3.09159e-02  -1.29938e-02  -4.76855e-02
Si    4.36722e+00   4.36646e+00   7.27935e+00 -4.05873e-02   1.87878e-02  -2.84103e-02
Si    1.45461e+00   4.36743e+00   1.01908e+01  1.11209e-02  -2.36770e-02  -2.10429e-02
Si    4.36529e+00   1.45786e+00   1.01893e+01  2.26834e-02  -2.28410e-02  -1.45096e-02
Si    5.81944e+00   1.16414e+01   5.82360e+00  4.35651e-02   4.44839e-02  -2.70766e-02
Si    8.73313e+00   2.91178e+00   5.82424e+00  1.11747e-02  -2.06169e-02  -2.83040e-02
Si    5.81954e+00   2.91033e+00   8.73014e+00  5.06740e-02  -1.34457e-04   3.47841e-02
Si    8.73550e+00   1.13581e-03   8.73379e+00 -2.88817e-02  -2.81421e-02   1.08748e-02
Si    7.27938e+00   1.45416e+00   7.27677e+00 -3.14497e-02   9.70344e-04   1.05073e-02
Si    1.01877e+01   4.36854e+00   7.27496e+00  1.83596e-02  -4.51861e-03   3.31018e-02
Si    7.28020e+00   4.36661e+00   1.01866e+01 -3.65354e-02  -1.63273e-02  -1.51352e-02
Si    1.01897e+01   1.45361e+00   1.01901e+01 -1.47655e-02   1.73036e-02  -1.71954e-02
Si    2.15469e-03   5.82335e+00   5.82010e+00 -3.04739e-02   5.26879e-03   1.41245e-02
Si    2.91266e+00   8.73142e+00   5.82044e+00 -1.59021e-02   4.13612e-02   2.39269e-02
Si    6.40195e-04   8.73313e+00   8.73258e+00  4.37670e-04   2.64723e-02   3.52347e-03
Si    2.91114e+00   5.82462e+00   8.73543e+00 -2.10364e-02  -2.86230e-02  -2.50072e-02
Si    1.45426e+00   7.27963e+00   7.27703e+00  3.05533e-02  -1.98683e-02   2.08499e-03
Si    4.36918e+00   1.01885e+01   7.27756e+00 -6.31020e-02  -1.97546e-03  -6.96560e-05
Si    1.45580e+00   1.01900e+01   1.01893e+01 -6.84054e-03  -5.36333e-03  -3.28420e-02
Si    4.36483e+00   7.27636e+00   1.01904e+01  3.80091e-02   3.44510e-02  -1.93709e-02
Si    5.82096e+00   5.82276e+00   5.82301e+00  1.29997e-02   4.24101e-04  -1.34928e-02
Si    8.73325e+00   8.73257e+00   5.81945e+00  9.55689e-03   1.23416e-02   5.85844e-02
Si    5.82057e+00   8.73544e+00   8.73124e+00  1.67006e-02  -4.64944e-02   4.37717e-02
Si    8.73055e+00   5.82420e+00   8.73127e+00  4.58752e-02  -1.85284e-02   9.34071e-03
Si    7.27803e+00   7.27691e+00   7.27856e+00 -2.37839e-02   3.55494e-02  -3.00398e-02
Si    1.01909e+01   1.01907e+01   7.27746e+00 -1.82236e-02  -3.11510e-02  -1.81920e-02
Si    7.27595e+00   1.01877e+01   1.01914e+01  1.83573e-02   2.60389e-02  -5.83681e-02
Si    1.01885e+01   7.27931e+00   1.01862e+01 -5.28375e-03  -1.37515e-02   2.30088e-02
