8
Lattice="5.37669 0 0 0 5.37669 0 0 0 5.37669 " PBC="1 1 1" Properties=species:S:1:pos:R:3:force:R:3 Energy="-34.6463612844"
Si    0.00000e+00   0.00000e+00   0.00000e+00  0.00000e+00   0.00000e+00   0.00000e+00
Si    2.68834e+00   2.68834e+00   0.00000e+00  0.00000e+00   0.00000e+00   0.00000e+00
Si    0.00000e+00   2.68834e+00   2.68834e+00  5.55112e-17   3.24380e-25  -3.24380e-25
Si    2.68834e+00   0.00000e+00   2.68834e+00  0.00000e+00   0.00000e+00   0.00000e+00
Si    1.34417e+00   1.34417e+00   1.34417e+00  0.00000e+00   0.00000e+00  -6.48759e-25
Si    4.03252e+00   4.03252e+00   1.34417e+00 -6.48759e-25   0.00000e+00   0.00000e+00
Si    1.34417e+00   4.03252e+00   4.03252e+00  0.00000e+00   0.00000e+00   0.00000e+00
Si    4.03252e+00   1.34417e+00   4.03252e+00 -6.48759e-25   0.00000e+00   0.00000e+00
