64
Lattice="11.491996 0 0 0 11.491996 0 0 0 11.491996 " PBC="1 1 1" Properties=species:S:1:pos:R:3:force:R:3 Energy="-266.514917267"
Si    3.83905e-06   1.14918e+01   4.49639e-06  1.33632e-02   2.89360e-03   1.95089e-02
Si    2.87098e+00   2.87484e+00   1.14910e+01  2.42007e-02  -3.42647e-02   5.30939e-03
Si    1.60413e-03   2.87481e+00   2.87021e+00 -1.88199e-02  -1.74433e-02   6.63516e-03
Si    2.87143e+00   1.21661e-03   2.87484e+00  2.58995e-02  -1.61897e-02  -3.07124e-02
Si    1.43818e+00   1.43647e+00   1.43685e+00 -2.06204e-02   4.88808e-03  -1.63194e-02
Si    4.30958e+00   4.30827e+00   1.43471e+00 -1.38185e-02   1.65374e-02   3.11386e-02
Si    1.43559e+00   4.30816e+00   4.30779e+00  2.70049e-02   3.59079e-02   6.77548e-03
Si    4.30897e+00   1.43662e+00   4.30667e+00 -8.61244e-03   9.20241e-03   4.08598e-02
Si    5.74866e+00   2.07128e-03   1.66648e-03 -2.32682e-02  -8.46157e-03  -5.84918e-03
Si    8.62045e+00   2.87552e+00   2.78235e-03 -2.94569e-02  -1.35003e-02  -4.03615e-02
Si    5.74361e+00   2.87319e+00   2.87447e+00  2.97609e-02  -1.49740e-02  -4.28199e-02
Si    8.61791e+00   1.10190e-03   2.87125e+00  2.73982e-02  -1.45020e-02   4.59092e-02
Si    7.18453e+00   1.43614e+00   1.43727e+00 -2.61016e-02   4.34589e-02   5.49535e-03
Si    1.00542e+01   4.31051e+00   1.43583e+00  1.24576e-02   1.41963e-02   2.88679e-02
Si    7.18085e+00   4.30760e+00   4.30917e+00  1.16096e-02   1.76995e-02   6.44132e-03
Si    1.00579e+01   1.43817e+00   4.30848e+00 -3.24902e-02  -3.43891e-03  -2.50911e-03
Si    1.14891e+01   5.74708e+00   8.29026e-04  1.52814e-02   2.09904e-03  -2.71076e-02
Si    2.87242e+00   8.61615e+00   4.31959e-04  2.39696e-02   2.82113e-02   6.57237e-03
Si    1.14904e+01   8.62104e+00   2.87471e+00  3.61819e-02  -2.83811e-02  -8.16249e-03
Si    2.87434e+00   5.74821e+00   2.87337e+00 -1.16270e-02  -5.85355e-02  -1.06255e-02
Si    1.43739e+00   7.17997e+00   1.43825e+00 -3.77937e-02   3.88670e-02  -3.46364e-03
Si    4.31114e+00   1.00581e+01   1.43635e+00 -2.56685e-02  -2.53077e-02   1.05735e-02
Si    1.43780e+00   1.00565e+01   4.31047e+00 -3.81587e-02  -4.45147e-03   7.50694e-04
Si    4.30693e+00   7.18312e+00   4.30854e+00  6.07066e-02  -1.38697e-02   2.20523e-02
Si    5.74851e+00   5.74318e+00   2.45753e-03 -4.25461e-02   5.55117e-02  -2.28621e-02
Si    8.61736e+00   8.61923e+00   1.14920e+01  4.78819e-03   2.21053e-02   1.17037e-02
Si    5.74689e+00   8.62053e+00   2.87496e+00 -3.30564e-02  -1.21264e-02  -2.11394e-02
Si    8.61770e+00   5.74588e+00   2.87422e+00 -6.80559e-03  -2.65125e-03  -1.23561e-02
Si    7.18105e+00   7.18336e+00   1.43830e+00  1.66894e-02  -8.74167e-03  -3.79883e-03
Si    1.00566e+01   1.00563e+01   1.43880e+00 -2.88861e-02  -3.50425e-03  -3.78874e-02
Si    7.18236e+00   1.00537e+01   4.30949e+00  2.67138e-03   5.22152e-02  -3.42959e-03
Si    1.00527e+01   7.18393e+00   4.30869e+00  4.54790e-02  -3.03705e-02   2.26022e-02
Si    1.14893e+01   1.14908e+01   5.74721e+00  3.15321e-02   1.48949e-02   1.56419e-02
Si    2.87367e+00   2.87470e+00   5.74450e+00 -1.12912e-02  -2.77952e-02   1.58531e-02
Si    2.56498e-03   2.87322e+00   8.61834e+00 -4.54270e-02   1.36083e-02   3.39567e-03
Si    2.87369e+00   7.44950e-04   8.61985e+00 -2.35290e-02  -2.68072e-02   1.95349e-02
Si    1.43708e+00   1.43761e+00   7.18524e+00  4.10671e-03  -1.89357e-02  -5.37541e-02
Si    4.30828e+00   4.30929e+00   7.18446e+00  2.61248e-02  -8.11789e-03  -1.32032e-02
Si    1.43514e+00   4.30867e+00   1.00556e+01 -8.30434e-03   2.89579e-02   1.10451e-02
Si    4.30946e+00   1.43441e+00   1.00574e+01  5.53599e-03   3.81123e-02  -3.41753e-03
Si    5.74592e+00   2.38012e-03   5.74455e+00 -1.94548e-02  -4.98920e-02   1.41145e-02
Si    8.61872e+00   2.87474e+00   5.74617e+00 -6.01749e-03  -4.51156e-02  -2.24698e-02
Si    5.74696e+00   2.87266e+00   8.62070e+00 -1.80280e-02  -1.67695e-02  -1.36819e-02
Si    8.61920e+00   1.14903e+01   8.62079e+00  8.88067e-03   3.89434e-02   5.85096e-03
Si    7.18314e+00   1.43440e+00   7.18187e+00  5.46525e-03   2.95038e-02   1.79219e-02
Si    1.00533e+01   4.30818e+00   7.18028e+00  4.55876e-02   2.06483e-02   3.40110e-02
Si    7.17993e+00   4.31153e+00   1.00562e+01  6.33366e-02  -2.45105e-02  -5.43926e-03
Si    1.00583e+01   1.43930e+00   1.00578e+01 -3.07773e-02  -2.18663e-02  -2.51601e-02
Si    2.47877e-03   5.74538e+00   5.74742e+00 -4.70286e-02   1.58810e-02  -3.03107e-02
Si    2.87156e+00   8.61705e+00   5.74320e+00  1.25299e-02   2.93016e-02   4.62752e-02
Si    2.60783e-03   8.62052e+00   8.62173e+00 -4.40982e-02  -2.18525e-02  -4.09246e-02
Si    2.87307e+00   5.74385e+00   8.62102e+00 -6.86711e-03   3.29480e-02  -1.14028e-02
Si    1.43702e+00   7.18350e+00   7.18346e+00  8.42286e-03  -1.91366e-02   1.03987e-02
Si    4.30760e+00   1.00543e+01   7.18462e+00  1.41051e-02   1.45710e-02  -5.93463e-02
Si    1.43497e+00   1.00533e+01   1.00566e+01  4.25616e-02   3.81751e-02   9.15019e-03
Si    4.31168e+00   7.18302e+00   1.00540e+01 -6.51250e-03  -3.89758e-02   3.44993e-02
Si    5.74741e+00   5.74418e+00   5.74689e+00 -5.45840e-02   6.03274e-03  -2.86443e-02
Si    8.61781e+00   8.61895e+00   5.74355e+00 -5.92455e-03  -1.32796e-02   3.68525e-02
Si    5.74565e+00   8.61726e+00   8.61615e+00  2.02685e-02   1.92635e-02   2.10757e-02
Si    8.61908e+00   5.74728e+00   8.61701e+00 -1.76579e-02  -2.27933e-02   1.01792e-02
Si    7.18168e+00   7.17965e+00   7.17976e+00  1.70800e-02   3.62957e-02   9.75888e-03
Si    1.00527e+01   1.00531e+01   7.18440e+00  2.70712e-02   5.26108e-03  -1.08628e-02
Si    7.18018e+00   1.00578e+01   1.00558e+01  1.03416e-02  -4.21031e-02  -7.53635e-03
Si    1.00531e+01   7.18511e+00   1.00530e+01  2.28198e-02  -1.75273e-02   2.88032e-02
