64
Lattice="11.29648 0 0 0 11.29648 0 0 0 11.29648 " PBC="1 1 1" Properties=species:S:1:pos:R:3:force:R:3 Energy="-271.806536827"
Si    1.12901e+01   1.12773e+01   1.12940e+01 -1.28477e-01   4.48171e-01  -1.33420e-02
Si    2.84314e+00   2.81851e+00   1.12864e+01 -1.77067e-01  -3.46800e-02  -1.18586e-01
Si    1.12279e-02   2.84535e+00   2.83259e+00  1.54162e-01  -2.63659e-01  -2.94518e-01
Si    2.79744e+00   1.12733e+01   2.84410e+00  5.23216e-01   2.99894e-01  -4.30774e-01
Si    1.42837e+00   1.39137e+00   1.40346e+00 -2.51164e-01   2.39321e-01   1.04304e-01
Si    4.23294e+00   4.24505e+00   1.40024e+00  2.62624e-01  -1.81912e-01   1.12989e-01
Si    1.42535e+00   4.23551e+00   4.24927e+00 -1.60695e-01   2.73948e-01   1.54572e-01
Si    4.21675e+00   1.41615e+00   4.21766e+00 -7.36028e-03  -1.58328e-01   3.84402e-01
Si    5.63514e+00   3.89622e-03   1.12698e+01  3.05734e-01  -6.61393e-03   6.40550e-01
Si    8.48927e+00   2.81260e+00   1.12795e+01 -1.93266e-01   5.76972e-03   2.87161e-01
Si    5.63904e+00   2.80601e+00   2.83113e+00 -2.23218e-01   3.32532e-01  -2.57221e-01
Si    8.44574e+00   1.12888e+01   2.82385e+00  2.82703e-01   2.06347e-01  -3.06620e-02
Si    7.05493e+00   1.43438e+00   1.43141e+00 -1.91097e-02  -3.79949e-01  -5.20729e-01
Si    9.89333e+00   4.22472e+00   1.40704e+00 -6.68574e-02   2.53792e-01  -3.52836e-02
Si    7.04300e+00   4.21670e+00   4.21379e+00  2.21252e-01   1.32670e-01   2.09941e-01
Si    9.86570e+00   1.44827e+00   4.20677e+00  2.16157e-01  -5.11888e-01   3.53683e-01
Si    1.12846e+01   5.66990e+00   1.12839e+01 -1.30338e-01  -2.82609e-01   4.22053e-02
Si    2.84624e+00   8.47639e+00   1.12842e+01 -3.40314e-01  -1.62485e-01   2.75528e-01
Si    2.27511e-02   8.44816e+00   2.80247e+00 -1.77566e-01   3.17856e-01   3.56861e-01
Si    2.84450e+00   5.64326e+00   2.83218e+00 -3.07980e-01   8.83781e-02  -1.39334e-01
Si    1.39776e+00   7.04058e+00   1.39372e+00  5.91999e-01   1.45042e-01   4.79370e-02
Si    4.24513e+00   9.87789e+00   1.42594e+00 -2.25795e-01   2.35668e-01  -3.03793e-01
Si    1.42629e+00   9.90565e+00   4.23400e+00 -3.69251e-01  -6.00313e-01   1.40991e-01
Si    4.24560e+00   7.06184e+00   4.23553e+00 -8.59822e-02   2.03941e-01   8.22169e-03
Si    5.66530e+00   5.64707e+00   1.12861e+01 -2.96044e-01  -1.22802e-02   1.27023e-01
Si    8.46639e+00   8.45907e+00   1.32672e-02  1.81349e-01   1.66687e-01  -8.55712e-02
Si    5.64107e+00   8.46514e+00   2.79410e+00  1.39477e-01  -8.59182e-02   3.92623e-01
Si    8.47599e+00   5.64032e+00   2.83811e+00 -9.88173e-02  -2.57457e-01  -3.07164e-01
Si    7.06101e+00   7.04206e+00   1.42338e+00  6.92992e-02   4.31322e-02  -1.24289e-01
Si    9.89624e+00   9.89271e+00   1.42638e+00 -2.40383e-01  -2.90845e-01  -8.70731e-02
Si    7.04671e+00   9.87797e+00   4.22005e+00  4.79540e-02  -1.06947e-01   3.60195e-01
Si    9.87731e+00   7.04458e+00   4.21765e+00  3.02362e-01   2.29763e-01   2.69772e-01
Si    1.62960e-02   4.10119e-03   5.64489e+00 -3.58762e-01   1.51458e-01  -1.59288e-01
Si    2.81851e+00   2.82365e+00   5.66459e+00  2.70624e-01   4.31294e-02  -9.13481e-02
Si    1.04786e-03   2.82055e+00   8.49899e+00 -1.64679e-02   9.51184e-02  -6.27658e-01
Si    2.80879e+00   1.12741e+01   8.49247e+00  2.17407e-01   8.74454e-02  -1.47783e-01
Si    1.43391e+00   1.39434e+00   7.05484e+00 -3.14000e-01   1.98545e-01   3.52599e-01
Si    4.24344e+00   4.23989e+00   7.08398e+00 -2.98131e-02   1.78344e-01  -4.99086e-01
Si    1.39046e+00   4.25289e+00   9.89188e+00  3.41702e-01  -1.83092e-01   5.25606e-02
Si    4.25887e+00   1.38814e+00   9.86432e+00 -5.76220e-01   2.08341e-01   1.34681e-01
Si    5.64676e+00   1.75590e-02   5.65624e+00 -1.44995e-02  -8.98965e-02  -1.55720e-01
Si    8.46375e+00   2.82802e+00   5.64402e+00 -8.71966e-02   1.00486e-01   5.21397e-02
Si    5.61475e+00   2.82578e+00   8.48153e+00  4.96064e-01  -6.49922e-02  -7.88741e-03
Si    8.47065e+00   1.12962e+01   8.45384e+00  1.06922e-02  -1.88375e-01   7.91812e-02
Si    7.05675e+00   1.42546e+00   7.07978e+00 -9.03482e-02   3.19636e-02  -2.19299e-01
Si    9.86180e+00   4.25435e+00   7.06367e+00  4.11819e-01  -4.24006e-01  -2.54036e-02
Si    7.04731e+00   4.20980e+00   9.90370e+00  1.89800e-01   1.93321e-01  -4.04364e-01
Si    9.86816e+00   1.41058e+00   9.85162e+00  2.53224e-01  -2.66204e-01   4.03612e-01
Si    1.12935e+01   5.67358e+00   5.67979e+00  7.78429e-03  -3.03747e-01  -4.70119e-01
Si    2.82956e+00   8.49385e+00   5.66211e+00  1.49907e-01  -7.34505e-02  -2.23988e-01
Si    1.12728e+01   8.47444e+00   8.48188e+00  6.31939e-01  -3.66984e-02  -1.54594e-02
Si    2.82524e+00   5.64514e+00   8.47680e+00 -3.20392e-01   3.34294e-02  -1.62596e-01
Si    1.41552e+00   7.07952e+00   7.04990e+00  1.21640e-02   1.02422e-02   4.26218e-01
Si    4.25250e+00   9.88831e+00   7.07915e+00 -4.43002e-02  -8.06435e-02   5.18317e-02
Si    1.39855e+00   9.88482e+00   9.90973e+00  5.51347e-02  -2.72498e-01  -2.59129e-01
Si    4.21445e+00   7.03921e+00   9.87648e+00  4.09210e-01   1.14893e-01   1.53814e-01
Si    5.67374e+00   5.66053e+00   5.62154e+00 -2.57945e-01  -2.67414e-01   3.38684e-01
Si    8.49644e+00   8.46460e+00   5.65913e+00 -1.04557e-01   2.24891e-01  -3.95851e-01
Si    5.65764e+00   8.44498e+00   8.49313e+00  4.53633e-02   1.67532e-01  -2.36089e-01
Si    8.46281e+00   5.63141e+00   8.44963e+00 -1.41732e-01   1.49840e-01   4.82025e-01
Si    7.08769e+00   7.06003e+00   7.03804e+00 -2.83497e-01  -2.74457e-02   2.36757e-01
Si    9.91494e+00   9.86626e+00   7.07285e+00 -3.23949e-01   3.86197e-01  -2.73068e-01
Si    7.06028e+00   9.89483e+00   9.89457e+00  9.73681e-02  -2.34164e-01  -1.39524e-01
Si    9.88785e+00   7.06466e+00   9.85846e+00 -4.35127e-01  -1.49577e-01   2.28942e-01
