8
Lattice="5.724274 0 0 0 5.724274 0 0 0 5.724274 " PBC="1 1 1" Properties=species:S:1:pos:R:3:force:R:3 Energy="-33.4895578766"
Si    0.00000e+00   0.00000e+00   0.00000e+00  6.66134e-16  -7.59063e-15  -7.74979e-15
Si    2.86214e+00   2.86214e+00   0.00000e+00  4.88498e-15   9.99201e-16  -5.55112e-15
Si    0.00000e+00   2.86214e+00   2.86214e+00 -3.55271e-15   2.92640e-15   3.08427e-15
Si    2.86214e+00   0.00000e+00   2.86214e+00  4.88498e-15  -5.32907e-15   9.99201e-16
Si    1.43107e+00   1.43107e+00   1.43107e+00  0.00000e+00  -4.81335e-17   1.25778e-16
Si    4.29321e+00   4.29321e+00   1.43107e+00 -1.50102e-15   2.52400e-15   1.82449e-15
Si    1.43107e+00   4.29321e+00   4.29321e+00 -3.99680e-15   4.66294e-15   4.88498e-15
Si    4.29321e+00   1.43107e+00   4.29321e+00 -1.50102e-15   1.98365e-15   2.68316e-15
