8
Lattice="4.931348 0 0 0 4.931348 0 0 0 4.931348 " PBC="1 1 1" Properties=species:S:1:pos:R:3:force:R:3 Energy="-30.210795572"
Si    0.00000e+00   0.00000e+00   0.00000e+00 -4.44089e-16  -2.77556e-17  -2.77556e-17
Si    2.46567e+00   2.46567e+00   0.00000e+00 -1.66533e-16  -4.23273e-16  -2.29038e-16
Si    0.00000e+00   2.46567e+00   2.46567e+00  0.00000e+00  -2.08167e-16   1.31947e-16
Si    2.46567e+00   0.00000e+00   2.46567e+00  3.60822e-16  -6.93889e-18  -2.22011e-16
Si    1.23284e+00   1.23284e+00   1.23284e+00  0.00000e+00  -8.32667e-17  -2.42753e-16
Si    3.69851e+00   3.69851e+00   1.23284e+00 -3.05311e-16   0.00000e+00   6.87818e-16
Si    1.23284e+00   3.69851e+00   3.69851e+00  2.49800e-16  -4.44089e-16  -1.38778e-17
Si    3.69851e+00   1.23284e+00   3.69851e+00 -3.88578e-16   6.03684e-16   6.91179e-18
