64
Lattice="10.775104 0 0 0 10.775104 0 0 0 10.775104 " PBC="1 1 1" Properties=species:S:1:pos:R:3:force:R:3 Energy="-277.262063138"
Si    1.07741e+01   1.71492e-03   2.89979e-03  5.45990e-02  -3.99343e-02  -6.81129e-02
Si    2.69214e+00   2.69710e+00   1.07735e+01  4.64265e-02  -9.04857e-03   7.02838e-02
Si    1.07663e+01   2.69866e+00   2.69772e+00  2.34607e-01  -9.43652e-02  -1.09213e-01
Si    2.69482e+00   1.07676e+01   2.69826e+00 -3.78691e-02   1.24326e-01  -1.28527e-01
Si    1.35067e+00   1.34997e+00   1.34569e+00 -8.72718e-02  -1.49290e-02   1.36040e-01
Si    4.04236e+00   4.03734e+00   1.35396e+00 -8.16941e-02   1.76390e-03  -5.15093e-02
Si    1.34257e+00   4.04007e+00   4.03899e+00 -7.89279e-02  -1.22791e-02   4.39745e-02
Si    4.03355e+00   1.34593e+00   4.04163e+00  1.35510e-01  -5.21132e-02   5.40370e-02
Si    5.38057e+00   7.21669e-03   1.07669e+01  1.38982e-01  -1.58739e-01   5.80691e-02
Si    8.08554e+00   2.69189e+00   3.47723e-03 -5.65237e-02   1.28079e-01   5.30656e-02
Si    5.38786e+00   2.69096e+00   2.69602e+00 -4.17951e-03  -4.99165e-03   3.89913e-02
Si    8.07826e+00   1.52318e-04   2.68865e+00 -7.39985e-03   7.26002e-02  -3.21428e-02
Si    6.72755e+00   1.34817e+00   1.34125e+00  5.71638e-02  -2.05238e-02   4.63668e-02
Si    9.43707e+00   4.04525e+00   1.35288e+00 -1.78302e-01  -2.35566e-02  -1.10459e-01
Si    6.73763e+00   4.04257e+00   4.03882e+00 -7.83456e-02   7.14162e-02  -5.78075e-02
Si    9.42814e+00   1.34986e+00   4.03186e+00 -2.48872e-02  -1.22410e-01   1.93625e-01
Si    1.07721e+01   5.39200e+00   3.08931e-03  1.02322e-01  -9.84073e-02  -1.54331e-01
Si    2.70258e+00   8.08257e+00   1.07724e+01 -9.02623e-02   7.91183e-03   1.18865e-01
Si    1.17438e-03   8.08353e+00   2.69456e+00 -1.88264e-01  -1.31847e-02  -3.46198e-02
Si    2.68568e+00   5.37879e+00   2.69837e+00  5.06886e-02   2.16958e-01  -1.59943e-01
Si    1.34316e+00   6.74347e+00   1.33906e+00  1.34683e-01  -1.22304e-01   1.41692e-01
Si    4.04151e+00   9.43202e+00   1.34236e+00  7.46599e-02  -6.20367e-02   6.53842e-02
Si    1.34657e+00   9.42735e+00   4.03768e+00  1.73755e-02  -1.32798e-02   9.88105e-02
Si    4.04383e+00   6.73460e+00   4.03335e+00 -9.48251e-02  -1.10017e-01   4.35315e-02
Si    5.38538e+00   5.38212e+00   4.07680e-03  2.17059e-02   9.00165e-02  -3.79851e-02
Si    8.08413e+00   8.07455e+00   4.55235e-03 -1.37653e-01   1.00681e-01  -7.81540e-02
Si    5.38887e+00   8.07477e+00   2.69038e+00  6.07082e-02   1.52020e-01  -4.04083e-02
Si    8.08239e+00   5.39327e+00   2.68691e+00  5.56260e-02  -1.46163e-01   1.70480e-01
Si    6.74194e+00   6.72887e+00   1.34999e+00 -1.71493e-01   5.17145e-02  -1.17683e-01
Si    9.41883e+00   9.43106e+00   1.33850e+00  1.73758e-01  -6.30410e-02   1.67105e-01
Si    6.73967e+00   9.42969e+00   4.03691e+00 -1.42035e-01  -3.54884e-02   1.50423e-02
Si    9.42465e+00   6.72738e+00   4.04776e+00 -5.19194e-03   1.84619e-01  -1.77237e-01
Si    6.19199e-03   1.07741e+01   5.39331e+00 -1.74727e-01  -5.45394e-03  -2.07334e-01
Si    2.69001e+00   2.69919e+00   5.38084e+00 -7.14821e-02  -1.35593e-01   6.35332e-02
Si    8.75122e-03   2.68337e+00   8.08006e+00 -2.59659e-01   9.48654e-02   2.09263e-02
Si    2.68596e+00   5.91835e-04   8.07739e+00  9.97511e-02  -5.76389e-02   3.32155e-02
Si    1.33988e+00   1.34704e+00   6.72983e+00  2.14804e-01   1.63214e-02  -1.79449e-02
Si    4.03532e+00   4.03446e+00   6.72848e+00  1.03035e-02   1.32770e-01   9.31681e-02
Si    1.34682e+00   4.03182e+00   9.42123e+00 -4.33308e-02   2.14463e-01   1.16939e-01
Si    4.03183e+00   1.34306e+00   9.43449e+00  4.03208e-02   1.56621e-01  -2.56307e-01
Si    5.38869e+00   1.07702e+01   5.39419e+00 -5.85821e-02   1.48933e-02  -1.88682e-01
Si    8.08111e+00   2.70084e+00   5.38095e+00  7.30652e-02  -1.06424e-01   9.96884e-02
Si    5.38819e+00   2.69575e+00   8.07731e+00 -6.06473e-02  -1.74866e-01   5.06465e-02
Si    8.08880e+00   1.07717e+01   8.07354e+00 -3.10602e-02   1.05931e-02   6.88117e-02
Si    6.73611e+00   1.33955e+00   6.72707e+00  5.19077e-02   1.65897e-01   8.28218e-02
Si    9.43496e+00   4.04499e+00   6.73448e+00 -6.48136e-02  -2.05740e-01   4.06012e-02
Si    6.73459e+00   4.03753e+00   9.42884e+00  4.58617e-04  -2.09109e-02   3.68869e-02
Si    9.42130e+00   1.34687e+00   9.43412e+00  1.57497e-01  -4.18963e-02  -1.40098e-01
Si    1.07656e+01   5.38278e+00   5.38141e+00  1.97461e-01   8.17340e-02   1.02726e-01
Si    2.69730e+00   8.07840e+00   5.38058e+00  2.71692e-03   6.47764e-02   8.41746e-02
Si    5.82081e-04   8.07876e+00   8.07492e+00 -6.37365e-03   2.82552e-03   2.83598e-01
Si    2.69031e+00   5.39177e+00   8.07945e+00 -2.60234e-02  -4.17385e-02  -6.59871e-02
Si    1.33759e+00   6.74165e+00   6.72915e+00  1.15023e-01  -1.88544e-01  -8.63734e-02
Si    4.04862e+00   9.42243e+00   6.74076e+00 -2.12441e-01   8.22121e-02  -1.19075e-01
Si    1.35569e+00   9.42123e+00   9.43485e+00 -1.97974e-01   9.83222e-02  -1.34177e-01
Si    4.03412e+00   6.73815e+00   9.43161e+00  2.28179e-01  -7.97979e-02  -1.22500e-01
Si    5.38162e+00   5.38587e+00   5.38727e+00  9.63190e-02   3.53026e-02  -2.81709e-04
Si    8.07807e+00   8.08385e+00   5.38667e+00  5.54456e-02  -6.66956e-02   4.62966e-02
Si    5.39249e+00   8.08554e+00   8.07619e+00 -4.96636e-02  -1.05967e-01   2.54021e-01
Si    8.08188e+00   5.37941e+00   8.08208e+00 -3.21294e-02   1.43374e-01   3.52652e-03
Si    6.73136e+00   6.73799e+00   6.73871e+00  6.23457e-02  -1.41326e-01  -9.81855e-02
Si    9.43645e+00   9.41949e+00   6.73493e+00 -8.63936e-02   1.09195e-01  -8.78298e-02
Si    6.74164e+00   9.42891e+00   9.42628e+00 -5.33940e-02   9.29517e-03   3.87825e-02
Si    9.42075e+00   6.73486e+00   9.43333e+00  1.29405e-01  -4.61639e-02  -1.52821e-01
