64
Lattice="9.971316 0 0 0 9.971316 0 0 0 9.971316 " PBC="1 1 1" Properties=species:S:1:pos:R:3:force:R:3 Energy="-248.645126926"
Si    6.12029e-03   1.20367e-02   9.95973e+00 -1.21949e-01  -6.03509e-01   3.57903e-01
Si    2.47673e+00   2.51714e+00   9.96477e+00 -1.77272e-02  -4.41143e-01   2.50073e-01
Si    2.57059e-03   2.47516e+00   2.49830e+00 -1.07116e-01   2.60233e-01   2.12435e-01
Si    2.50376e+00   1.08416e-02   2.47660e+00 -3.08891e-01  -4.14349e-01   6.73741e-02
Si    1.24293e+00   1.24478e+00   1.26421e+00  2.26131e-01   2.29965e-01  -6.40821e-01
Si    3.71467e+00   3.73313e+00   1.27595e+00  6.95243e-01   8.52274e-02  -7.59995e-01
Si    1.23002e+00   3.74403e+00   3.74756e+00  5.86975e-01  -5.37610e-01  -2.14956e-02
Si    3.72313e+00   1.22983e+00   3.73084e+00  4.46020e-01   3.64620e-01   5.76077e-02
Si    4.97036e+00   2.13905e-02   1.39235e-02  5.98183e-01  -9.13449e-01  -2.94277e-01
Si    7.45774e+00   2.50903e+00   9.96187e+00  8.89604e-01  -5.50676e-01  -7.07646e-02
Si    4.97795e+00   2.49615e+00   2.49907e+00  2.72505e-01  -5.14885e-01  -1.54799e-01
Si    7.47330e+00   1.99730e-02   2.48341e+00 -6.26095e-03  -4.75571e-01   2.61584e-01
Si    6.23989e+00   1.23754e+00   1.21664e+00 -3.93137e-01   6.98727e-01   6.34863e-01
Si    8.72906e+00   3.72618e+00   1.25353e+00 -2.79375e-01   2.99879e-01   3.76673e-02
Si    6.22277e+00   3.74566e+00   3.74941e+00  3.91011e-01  -4.83117e-01   7.75635e-02
Si    8.72964e+00   1.23679e+00   3.74482e+00  1.79942e-01  -2.27260e-01   3.68269e-02
Si    9.95720e+00   4.99703e+00   9.96481e+00  2.38473e-01  -3.31862e-01   2.60826e-01
Si    2.49612e+00   7.48068e+00   9.94426e+00 -2.97770e-01  -2.68958e-01   5.06122e-01
Si    9.97061e+00   7.47578e+00   2.49370e+00  1.51159e-01  -1.12664e-01   2.19145e-01
Si    2.50987e+00   4.96990e+00   2.50220e+00 -1.08537e+00   1.90236e-01  -7.73000e-04
Si    1.24679e+00   6.22519e+00   1.24682e+00  3.75160e-01   5.53611e-02  -7.08549e-02
Si    3.72329e+00   8.73512e+00   1.21864e+00  7.14996e-02  -8.72492e-02   1.80745e-01
Si    1.24282e+00   8.74619e+00   3.73124e+00  6.50843e-01  -6.57337e-01  -5.19971e-02
Si    3.71385e+00   6.21488e+00   3.73838e+00  1.13119e+00   3.98528e-01   3.17821e-01
Si    4.99406e+00   5.00305e+00   2.17661e-02 -3.13930e-01  -5.68796e-01  -3.57850e-01
Si    7.47181e+00   7.45959e+00   1.91414e-02  9.78272e-01   1.87343e-01  -7.90533e-01
Si    4.98193e+00   7.50081e+00   2.47246e+00 -2.73076e-01  -3.42845e-01   3.53952e-01
Si    7.46432e+00   4.99258e+00   2.50479e+00  1.39849e-01  -2.79734e-01  -4.21236e-01
Si    6.24884e+00   6.24969e+00   1.23789e+00 -4.78921e-01  -2.99935e-01   7.39883e-01
Si    8.72289e+00   8.71123e+00   1.26136e+00  2.42566e-02   4.90749e-01  -4.19649e-01
Si    6.22325e+00   8.73698e+00   3.75321e+00  2.98684e-01  -5.30843e-02  -5.98973e-01
Si    8.71704e+00   6.22381e+00   3.73131e+00  1.24801e-01   1.58097e-01  -1.89035e-01
Si    1.05304e-02   9.94555e+00   4.98674e+00 -1.99528e-01   6.03403e-01   2.07408e-01
Si    2.51055e+00   2.47618e+00   4.99800e+00 -8.43086e-01  -5.06556e-03  -5.91472e-01
Si    9.96396e+00   2.46753e+00   7.48877e+00  4.57863e-01   6.34935e-01  -1.58467e-01
Si    2.51246e+00   3.17581e-02   7.46627e+00 -3.44969e-01  -8.79239e-01   7.07924e-01
Si    1.25059e+00   1.24030e+00   6.24322e+00 -2.44448e-01   9.03335e-02  -4.26570e-01
Si    3.72478e+00   3.71882e+00   6.21615e+00  6.04557e-03   7.50860e-01   5.62133e-01
Si    1.24123e+00   3.76107e+00   8.71553e+00 -6.37613e-01  -4.46832e-01   1.72812e-01
Si    3.74966e+00   1.23758e+00   8.75424e+00 -1.88468e-01   1.00182e+00  -6.63959e-01
Si    4.99286e+00   1.59488e-02   4.97265e+00 -4.45117e-01  -1.19530e-01   3.25347e-01
Si    7.49905e+00   2.48242e+00   4.99219e+00  1.06482e-02   7.71564e-01  -1.12713e-01
Si    4.98129e+00   2.50560e+00   7.45563e+00 -1.54473e-01  -3.98197e-01   6.21812e-01
Si    7.47971e+00   2.78153e-02   7.46417e+00 -2.56180e-01  -6.23486e-01  -2.28572e-01
Si    6.22367e+00   1.27220e+00   6.21041e+00  9.50029e-02  -2.71882e-01   2.39812e-01
Si    8.74885e+00   3.75575e+00   6.24631e+00 -4.85525e-01  -6.12489e-01   7.10722e-02
Si    6.24678e+00   3.72977e+00   8.71425e+00 -7.84339e-01   6.32039e-01   4.94108e-02
Si    8.72824e+00   1.23805e+00   8.71010e+00 -5.10671e-01   3.64119e-01   6.68221e-01
Si    9.94390e+00   4.97308e+00   4.96596e+00  6.59864e-01   7.51963e-01   5.37014e-01
Si    2.50301e+00   7.47965e+00   5.00859e+00 -5.86007e-01   1.25185e-01  -7.18849e-01
Si    5.96612e-03   7.45893e+00   7.48543e+00 -7.99923e-02   4.25542e-01  -6.93329e-01
Si    2.47311e+00   4.98281e+00   7.48956e+00  7.51129e-01  -1.48634e-03  -5.10240e-01
Si    1.25475e+00   6.23368e+00   6.24198e+00 -5.30620e-01  -4.78299e-01  -4.96999e-01
Si    3.73137e+00   8.73155e+00   6.22253e+00  7.31070e-01   2.54512e-01   2.78912e-01
Si    1.23676e+00   8.69752e+00   8.71564e+00  4.46083e-01   1.03413e+00  -3.28510e-01
Si    3.73299e+00   6.24226e+00   8.71466e+00  2.94533e-01  -4.20377e-01   1.08009e-01
Si    5.00212e+00   4.96745e+00   5.00880e+00 -6.75926e-01   4.05850e-01  -3.27535e-01
Si    7.47887e+00   7.46471e+00   4.96273e+00 -1.73526e-01   5.38623e-02   3.18312e-01
Si    4.99481e+00   7.48409e+00   7.48889e+00  4.91633e-02   1.41436e-02  -4.65692e-01
Si    7.49283e+00   4.98770e+00   7.49412e+00  1.30345e-01  -1.50928e-01  -1.80286e-01
Si    6.25204e+00   6.21213e+00   6.23739e+00 -1.12121e-01   4.73686e-01   1.56110e-01
Si    8.72371e+00   8.70924e+00   6.21748e+00 -7.86607e-02  -8.27191e-02   4.11768e-01
Si    6.24840e+00   8.72095e+00   8.74243e+00 -2.19044e-01   6.18836e-01   1.85404e-02
Si    8.75353e+00   6.23016e+00   8.70309e+00 -8.67712e-01   2.28814e-01   7.19239e-01
