64
Lattice="10.232004 0 0 0 10.232004 0 0 0 10.232004 " PBC="1 1 1" Properties=species:S:1:pos:R:3:force:R:3 Energy="-263.753723847"
Si    1.02297e+01   1.02309e+01   1.13046e-03  2.48836e-02   4.71079e-02  -5.19332e-02
Si    2.55555e+00   2.55650e+00   1.02297e+01  6.51337e-02   4.82090e-02   8.05136e-02
Si    1.02310e+01   2.55884e+00   2.55702e+00  2.76221e-02  -2.49350e-02   3.10308e-02
Si    2.55843e+00   1.02298e+01   2.55988e+00 -2.00549e-02   6.74657e-02  -1.39728e-02
Si    1.27712e+00   1.27735e+00   1.27898e+00  2.78912e-02  -7.58054e-04   2.05034e-02
Si    3.83886e+00   3.83833e+00   1.28141e+00 -7.18338e-02  -4.49963e-02  -9.52176e-02
Si    1.28033e+00   3.83641e+00   3.83653e+00 -1.23379e-02   1.99968e-02  -1.88623e-02
Si    3.83809e+00   1.27783e+00   3.83881e+00 -4.83528e-02   3.33252e-02  -2.42999e-02
Si    5.11812e+00   1.33403e-03   8.52763e-05 -6.77374e-02   5.00793e-03   2.90758e-02
Si    7.67230e+00   2.55697e+00   1.02309e+01  2.45514e-02   2.86305e-02   3.60408e-03
Si    5.11512e+00   2.55780e+00   2.55823e+00  6.15364e-02  -1.08057e-02   3.44590e-02
Si    7.67256e+00   1.53413e-03   2.55916e+00  6.48422e-02  -1.83416e-02   1.59647e-03
Si    6.39679e+00   1.27781e+00   1.27959e+00 -4.77231e-02   5.15510e-02   4.81620e-03
Si    8.95379e+00   3.83642e+00   1.27854e+00 -4.08836e-02   2.17120e-02  -3.02558e-02
Si    6.39659e+00   3.83751e+00   3.83904e+00 -5.64646e-02  -1.95787e-02  -4.49298e-02
Si    8.95295e+00   1.28068e+00   3.83884e+00  3.27770e-02  -5.26673e-02  -3.49146e-02
Si    1.47569e-03   5.11799e+00   1.01737e-03 -1.09093e-02  -1.50527e-02  -4.93934e-02
Si    2.55777e+00   7.67301e+00   1.63755e-03  3.83833e-03   5.81675e-02  -6.17969e-02
Si    1.02302e+01   7.67350e+00   2.55663e+00  6.66286e-02   7.51063e-02   6.75478e-03
Si    2.55846e+00   5.11798e+00   2.55712e+00 -7.79521e-03  -4.34392e-02   1.87931e-02
Si    1.28056e+00   6.39652e+00   1.27985e+00 -3.95398e-02  -1.54141e-02   1.85363e-03
Si    3.83569e+00   8.95464e+00   1.27883e+00  7.84870e-02  -5.57913e-02   1.91587e-02
Si    1.28022e+00   8.95280e+00   3.83886e+00 -4.86270e-02  -5.35355e-02  -6.57297e-02
Si    3.83804e+00   6.39330e+00   3.83536e+00  1.26630e-02   5.68153e-04   5.70077e-02
Si    5.11779e+00   5.11531e+00   1.02314e+01 -4.48543e-02   3.92391e-02   8.18948e-03
Si    7.67166e+00   7.67469e+00   1.55618e-03  3.44578e-02   2.25795e-02  -3.97941e-02
Si    5.11803e+00   7.67244e+00   2.55983e+00 -6.06815e-02   5.01818e-02  -6.82815e-02
Si    7.67235e+00   5.11535e+00   2.55740e+00  5.70354e-02   1.46711e-02   1.04336e-02
Si    6.39536e+00   6.39506e+00   1.27915e+00 -1.65645e-02  -1.81898e-02   5.66504e-04
Si    8.95312e+00   8.95521e+00   1.27770e+00 -6.19849e-02  -4.32386e-02   5.94385e-02
Si    6.39351e+00   8.95462e+00   3.83600e+00  4.44946e-02  -3.61585e-02   3.03981e-02
Si    8.95390e+00   6.39717e+00   3.83480e+00 -2.13562e-02  -8.69286e-02   3.14122e-02
Si    1.44153e-03   1.02296e+01   5.11605e+00 -2.78531e-02   5.90996e-02   2.19425e-02
Si    2.55769e+00   2.55898e+00   5.11743e+00  1.17907e-02  -4.06287e-02   7.52777e-03
Si    1.02297e+01   2.55582e+00   7.67454e+00  1.64351e-02   5.71421e-02   1.32409e-02
Si    2.55909e+00   1.02302e+01   7.67459e+00 -1.78399e-02   5.42379e-02  -1.12478e-03
Si    1.27721e+00   1.27880e+00   6.39746e+00  4.51686e-02  -2.27806e-02  -3.49532e-02
Si    3.83876e+00   3.83798e+00   6.39481e+00 -2.90893e-02  -4.58007e-02   3.25393e-02
Si    1.28113e+00   3.83819e+00   8.95046e+00 -7.89114e-02  -1.49785e-02   2.06620e-02
Si    3.83789e+00   1.27940e+00   8.95290e+00  1.47182e-03  -1.32409e-02  -7.52468e-03
Si    5.11568e+00   1.02313e+01   5.11490e+00  4.04644e-02   4.13282e-02   6.91143e-02
Si    7.67539e+00   2.55911e+00   5.11428e+00 -3.23320e-02  -2.16330e-02   4.11283e-02
Si    5.11734e+00   2.55946e+00   7.67522e+00 -3.76045e-02  -3.15533e-02  -4.45251e-02
Si    7.67262e+00   1.02311e+01   7.67286e+00  1.74763e-02  -4.92779e-03   1.70004e-02
Si    6.39704e+00   1.28118e+00   6.39561e+00 -4.61915e-02  -2.71819e-02  -4.92887e-02
Si    8.95116e+00   3.83515e+00   6.39432e+00  5.92239e-02   3.00978e-02   1.45931e-02
Si    6.39304e+00   3.83706e+00   8.95177e+00  7.04038e-02   8.66202e-03   2.94522e-02
Si    8.95101e+00   1.27740e+00   8.95210e+00 -7.70449e-04  -8.02037e-03   2.77501e-02
Si    8.46899e-04   5.11504e+00   5.11612e+00 -3.34620e-02   7.96576e-03  -2.44277e-02
Si    2.55715e+00   7.67190e+00   5.11390e+00  6.01259e-02   1.93026e-02   2.40121e-02
Si    1.02307e+01   7.67256e+00   7.67177e+00  7.12400e-02   7.24266e-04   6.03364e-02
Si    2.55942e+00   5.11598e+00   7.67285e+00  2.27587e-02   3.30559e-02  -4.56288e-04
Si    1.28059e+00   6.39417e+00   6.39345e+00 -2.90228e-02  -5.42228e-03   2.29702e-02
Si    3.83619e+00   8.95389e+00   6.39389e+00  2.88401e-02  -8.54092e-02   6.50940e-03
Si    1.27780e+00   8.95495e+00   8.95320e+00 -3.35142e-03  -8.46286e-02   5.52977e-03
Si    3.83825e+00   6.39704e+00   8.95185e+00 -1.43684e-02  -5.68674e-02   3.77472e-02
Si    5.11617e+00   5.11413e+00   5.11836e+00  2.92877e-02   6.51823e-02  -4.81922e-02
Si    7.67560e+00   7.67478e+00   5.11448e+00 -5.26783e-03   4.34449e-02   8.09879e-03
Si    5.11841e+00   7.67163e+00   7.67361e+00 -3.10618e-02   9.57871e-02  -2.63748e-02
Si    7.67628e+00   5.11508e+00   7.67542e+00 -6.87724e-02  -2.41650e-04  -5.01364e-02
Si    6.39743e+00   6.39604e+00   6.39399e+00  1.72491e-02  -5.51759e-02   9.54155e-03
Si    8.95540e+00   8.95247e+00   6.39731e+00 -6.19956e-02   9.05713e-03  -6.76746e-02
Si    6.39311e+00   8.95524e+00   8.95432e+00  3.09552e-02  -5.79453e-02  -3.58923e-02
Si    8.95068e+00   6.39584e+00   8.95160e+00  4.58614e-02   7.66010e-03   7.06508e-02
