64
Lattice="11.144412 0 0 0 11.144412 0 0 0 11.144412 " PBC="1 1 1" Properties=species:S:1:pos:R:3:force:R:3 Energy="-275.153770008"
Si    2.65124e-03   1.17039e-03   1.11395e+01 -4.61766e-02   3.85628e-02  -9.57075e-03
Si    2.79420e+00   2.77854e+00   6.13698e-03 -1.52740e-01   1.52112e-01  -8.27222e-02
Si    1.11372e+01   2.78122e+00   2.78668e+00  1.85728e-01   2.11854e-02   4.09173e-02
Si    2.78698e+00   1.11383e+01   2.78852e+00  1.12605e-02   8.29124e-02  -4.75057e-02
Si    1.39715e+00   1.39439e+00   1.38816e+00 -5.29677e-02  -8.75139e-02   1.27898e-01
Si    4.17260e+00   4.18237e+00   1.39093e+00  1.44699e-01  -1.07060e-01   1.22522e-01
Si    1.39391e+00   4.18373e+00   4.17726e+00 -1.18737e-01  -6.80597e-02  -3.51456e-02
Si    4.17966e+00   1.39195e+00   4.18410e+00  2.70665e-02  -3.81367e-02  -3.78441e-02
Si    5.56450e+00   9.59993e-03   1.11349e+01  1.72207e-01  -1.61330e-01   7.60176e-02
Si    8.36395e+00   2.79274e+00   1.11419e+01 -1.00044e-01  -7.99962e-02   5.77785e-02
Si    5.57903e+00   2.78522e+00   2.79297e+00 -1.21896e-01   7.30432e-03  -1.38371e-01
Si    8.36450e+00   1.11440e+01   2.78545e+00  1.78571e-04   3.66832e-02   1.26241e-02
Si    6.96945e+00   1.38670e+00   1.39500e+00 -2.05849e-02   1.21406e-01  -8.10616e-02
Si    9.75794e+00   4.17307e+00   1.39895e+00 -5.05471e-02   9.79448e-02  -1.18445e-01
Si    6.96812e+00   4.18210e+00   4.17378e+00  1.02985e-02   1.43727e-02   9.51731e-02
Si    9.74580e+00   1.40101e+00   4.18572e+00  7.15317e-02  -1.21024e-01  -8.87363e-02
Si    1.11428e+01   5.57105e+00   1.11394e+01  3.65199e-02   4.29135e-02   1.84810e-01
Si    2.79142e+00   8.36462e+00   3.77276e-03 -7.44712e-02  -1.20904e-01  -1.00435e-01
Si    1.11358e+01   8.35880e+00   2.79555e+00  1.48659e-01   5.89582e-02  -2.09413e-01
Si    2.78167e+00   5.57089e+00   2.77969e+00  1.00481e-01   2.45149e-02   1.37053e-01
Si    1.39981e+00   6.96548e+00   1.39718e+00 -1.78237e-01   7.55209e-02  -7.32070e-02
Si    4.18241e+00   9.75049e+00   1.38985e+00 -1.50623e-02   1.15468e-01   9.24996e-04
Si    1.38937e+00   9.75527e+00   4.18181e+00  5.56877e-02  -1.03756e-01  -1.71952e-02
Si    4.18372e+00   6.95705e+00   4.18361e+00 -1.51271e-01   1.57960e-01  -1.39311e-01
Si    5.56713e+00   5.57836e+00   1.03464e-02  4.09421e-02  -7.16812e-02  -1.79165e-01
Si    8.35783e+00   8.36156e+00   5.27125e-03  9.34262e-03  -5.17686e-02  -7.01502e-02
Si    5.56911e+00   8.35972e+00   2.77821e+00  6.93106e-02  -2.52080e-02   1.57598e-01
Si    8.36361e+00   5.56736e+00   2.78527e+00 -4.79167e-02   9.10135e-02  -7.03127e-02
Si    6.96391e+00   6.96732e+00   1.39085e+00  6.82824e-02  -3.02321e-02   9.16571e-02
Si    9.75041e+00   9.75515e+00   1.38519e+00  7.50968e-02  -2.58221e-02   1.23383e-01
Si    6.97154e+00   9.75543e+00   4.17538e+00 -7.21179e-02  -8.78345e-02  -5.72165e-02
Si    9.75381e+00   6.96544e+00   4.17283e+00 -1.07032e-01  -6.54732e-02   1.10138e-01
Si    6.42430e-03   5.69217e-03   5.56560e+00 -9.65171e-02   2.96160e-02   1.97130e-01
Si    2.78092e+00   2.78716e+00   5.56721e+00  9.11520e-02   3.98888e-02   5.92125e-02
Si    1.11435e+01   2.79111e+00   8.36186e+00  8.89505e-03  -5.96425e-02  -2.15606e-02
Si    2.79393e+00   1.11380e+01   8.35272e+00 -1.70605e-01   7.47699e-02   1.45076e-01
Si    1.39793e+00   1.40307e+00   6.97049e+00 -4.60141e-02  -1.32659e-01  -4.95493e-02
Si    4.17969e+00   4.17620e+00   6.96516e+00  2.47337e-02  -2.18158e-03  -1.17186e-01
Si    1.38615e+00   4.17429e+00   9.75974e+00  1.84001e-01   2.21139e-03  -6.48394e-02
Si    4.17392e+00   1.39774e+00   9.75369e+00  7.48338e-02  -2.92658e-02  -1.75424e-01
Si    5.58126e+00   1.11405e+01   5.57209e+00 -1.09709e-01   3.61969e-02   4.91066e-02
Si    8.36437e+00   2.79482e+00   5.56941e+00 -1.15307e-01  -9.85868e-03   7.63780e-02
Si    5.57609e+00   2.78690e+00   8.35436e+00 -8.48062e-02   4.62692e-03   8.57182e-02
Si    8.35421e+00   1.11362e+01   8.36151e+00  1.11272e-01   1.37828e-01  -1.38326e-01
Si    6.96613e+00   1.40062e+00   6.96347e+00  9.55241e-02  -1.06937e-01  -8.47656e-03
Si    9.75648e+00   4.17857e+00   6.96609e+00 -1.06250e-01   8.77698e-02   6.82294e-02
Si    6.96270e+00   4.18296e+00   9.74978e+00 -1.03744e-02   3.95077e-02   8.76816e-02
Si    9.74863e+00   1.39690e+00   9.74718e+00  2.12037e-02  -7.15855e-02   2.32332e-02
Si    1.11372e+01   5.57097e+00   5.57155e+00  1.46477e-01   7.73524e-02   1.52268e-03
Si    2.78107e+00   8.35568e+00   5.57817e+00  1.08189e-01   3.57119e-02  -1.25222e-01
Si    7.39558e-05   8.36195e+00   8.35197e+00 -7.33906e-03  -1.75406e-01   1.12461e-01
Si    2.78587e+00   5.56237e+00   8.35187e+00 -4.83988e-02   7.64358e-02   1.42667e-01
Si    1.39675e+00   6.96826e+00   6.96515e+00 -1.19293e-01  -1.32807e-01   3.72537e-03
Si    4.17871e+00   9.74655e+00   6.96946e+00  4.98914e-02   5.97611e-02  -1.64395e-01
Si    1.38386e+00   9.74328e+00   9.74968e+00  1.95200e-01   1.25468e-01  -2.47339e-02
Si    4.18066e+00   6.96459e+00   9.74654e+00 -6.70782e-02   9.77640e-03   4.31895e-02
Si    5.57171e+00   5.57566e+00   5.56702e+00  7.94784e-02  -1.10358e-01   1.25269e-01
Si    8.35705e+00   8.35695e+00   5.56453e+00  7.28547e-02   1.63099e-02   7.47680e-02
Si    5.56836e+00   8.36536e+00   8.35661e+00  9.98510e-02  -1.05350e-01   4.95566e-02
Si    8.35874e+00   5.57910e+00   8.36452e+00  7.27199e-03  -5.50912e-02  -1.07552e-01
Si    6.96384e+00   6.97092e+00   6.96504e+00 -6.04403e-03  -3.25191e-02  -1.19767e-02
Si    9.75819e+00   9.74416e+00   6.96758e+00 -1.04887e-01   1.57451e-01  -1.61185e-01
Si    6.97410e+00   9.74796e+00   9.74806e+00 -2.17997e-01   5.30709e-02   1.07344e-01
Si    9.75103e+00   6.96782e+00   9.75670e+00  2.23026e-02   6.68764e-02  -6.45315e-02
