64
Lattice="11.752684 0 0 0 11.752684 0 0 0 11.752684 " PBC="1 1 1" Properties=species:S:1:pos:R:3:force:R:3 Energy="-256.406683981"
Si    1.10683e-03   8.41664e-04   1.17520e+01 -2.55166e-02  -2.87189e-03   9.93188e-02
Si    2.93797e+00   2.94209e+00   1.17500e+01 -1.05069e-02   6.13360e-03   2.43109e-02
Si    1.17470e+01   2.93061e+00   2.93616e+00  1.05978e-01   1.06251e-01  -2.75019e-03
Si    2.93814e+00   1.71520e-04   2.93348e+00  4.66395e-03  -1.40720e-02   5.91830e-02
Si    1.47571e+00   1.47241e+00   1.46332e+00 -7.84267e-02  -2.93412e-02   2.99885e-02
Si    4.40563e+00   4.40742e+00   1.47083e+00  2.13347e-02   4.50623e-02  -8.29378e-02
Si    1.47661e+00   4.40702e+00   4.40733e+00 -1.16014e-01  -2.31842e-02   5.68326e-03
Si    4.40186e+00   1.47206e+00   4.40887e+00  1.22456e-02  -7.05069e-02  -1.19689e-02
Si    5.88655e+00   1.17444e+01   2.63009e-03 -1.43848e-01   1.01500e-01  -8.29692e-02
Si    8.81952e+00   2.93267e+00   1.17491e+01 -5.27586e-02   6.88427e-02   5.14734e-02
Si    5.86908e+00   2.93622e+00   2.93834e+00  1.16084e-01  -8.50452e-03  -1.80048e-02
Si    8.81239e+00   4.34200e-03   2.93921e+00 -2.64409e-02  -8.77917e-02   4.76430e-02
Si    7.35063e+00   1.45891e+00   1.46559e+00 -5.89498e-02   1.37286e-01   4.14377e-02
Si    1.02783e+01   4.41050e+00   1.47444e+00  1.08138e-01  -9.62499e-02  -9.53677e-02
Si    7.34394e+00   4.41246e+00   4.40812e+00  2.16425e-02  -9.87518e-02  -2.82894e-02
Si    1.02832e+01   1.46673e+00   4.39976e+00 -1.54883e-02   2.98727e-02   9.41205e-02
Si    9.33980e-03   5.86956e+00   2.63503e-04 -1.13352e-01   1.03155e-01   4.94507e-02
Si    2.93305e+00   8.81700e+00   1.17466e+01  4.53902e-02   3.93201e-02   1.66644e-01
Si    1.17476e+01   8.80727e+00   2.93308e+00  7.98455e-02   1.08430e-01   8.87458e-02
Si    2.93288e+00   5.87827e+00   2.93173e+00  1.14536e-01  -4.66325e-02   9.30978e-02
Si    1.47640e+00   7.34476e+00   1.47554e+00 -9.73055e-02   1.53564e-02  -1.40314e-01
Si    4.41344e+00   1.02860e+01   1.46772e+00 -7.80902e-02  -6.19742e-02  -3.99382e-03
Si    1.47149e+00   1.02796e+01   4.41500e+00 -2.97694e-02  -2.35163e-02  -1.71091e-01
Si    4.41135e+00   7.33944e+00   4.40378e+00 -1.16179e-01   2.09508e-02   4.63255e-02
Si    5.87783e+00   5.88105e+00   1.17433e+01 -3.04566e-02   8.92493e-03   1.65555e-01
Si    8.81162e+00   8.81069e+00   1.95922e-03  4.72591e-02   4.21937e-02   2.50295e-02
Si    5.87196e+00   8.81421e+00   2.94350e+00  9.23075e-02   1.13056e-02  -3.40962e-02
Si    8.82434e+00   5.87244e+00   2.94094e+00 -1.27201e-01   7.16810e-02   2.04065e-02
Si    7.35104e+00   7.34310e+00   1.47407e+00 -6.59213e-02  -9.81658e-03  -7.15336e-03
Si    1.02798e+01   1.02869e+01   1.47635e+00  1.45896e-02  -3.35792e-02  -9.49410e-02
Si    7.33834e+00   1.02894e+01   4.41801e+00  2.43015e-02  -2.43635e-02  -1.66196e-01
Si    1.02789e+01   7.35234e+00   4.40511e+00  7.14681e-02  -7.56455e-02   7.14867e-02
Si    4.77051e-03   1.93982e-04   5.86616e+00 -6.00589e-02   2.57661e-02   1.29406e-01
Si    2.93869e+00   2.93544e+00   5.88165e+00 -6.83640e-02  -2.29400e-02  -4.37069e-02
Si    4.69113e-03   2.92825e+00   8.81982e+00 -1.78192e-01   1.23055e-01  -6.59975e-02
Si    2.94208e+00   1.17446e+01   8.81775e+00 -8.97912e-02   9.42662e-02   2.36299e-02
Si    1.46614e+00   1.46935e+00   7.35443e+00  7.52275e-02  -9.40339e-02  -9.26723e-02
Si    4.40326e+00   4.39988e+00   7.33655e+00  1.07385e-01   5.78250e-03   1.34146e-01
Si    1.46203e+00   4.40188e+00   1.02844e+01  1.31568e-01   1.70667e-02  -4.25656e-02
Si    4.39876e+00   1.47361e+00   1.02834e+01  1.86111e-01  -7.93960e-02   3.39983e-02
Si    5.86809e+00   1.17455e+01   5.87519e+00  7.67651e-03   1.44966e-01   1.01826e-01
Si    8.81855e+00   2.94216e+00   5.87875e+00 -8.84718e-02  -5.99683e-02  -7.36608e-02
Si    5.88722e+00   2.94353e+00   8.82107e+00 -1.60527e-01   1.20571e-02  -3.08151e-02
Si    8.80624e+00   1.17525e+01   8.81013e+00  1.84786e-02  -2.77168e-02   9.03498e-02
Si    7.33984e+00   1.47390e+00   7.35030e+00  2.73553e-02  -5.01111e-02  -1.04997e-01
Si    1.02754e+01   4.41353e+00   7.33844e+00  1.70391e-01  -9.59065e-02   1.54916e-01
Si    7.34980e+00   4.41848e+00   1.02864e+01  6.79411e-03  -1.41714e-01   1.76804e-02
Si    1.02837e+01   1.46091e+00   1.02874e+01 -1.17741e-02   1.78375e-02  -8.10506e-02
Si    5.89427e-03   5.88154e+00   5.88433e+00 -8.99130e-02  -2.49597e-02  -1.38805e-01
Si    2.93135e+00   8.80703e+00   5.87921e+00  1.07722e-01   1.18330e-02   3.14058e-02
Si    1.17465e+01   8.81347e+00   8.82076e+00  4.84598e-02   1.07294e-01  -4.48988e-02
Si    2.94667e+00   5.86737e+00   8.81398e+00 -1.12452e-01   7.75523e-02   4.26453e-02
Si    1.46285e+00   7.34417e+00   7.35301e+00  8.87387e-02  -8.98235e-03   4.05897e-02
Si    4.40609e+00   1.02819e+01   7.35350e+00 -4.93918e-02  -5.59637e-02  -1.20305e-01
Si    1.46699e+00   1.02888e+01   1.02940e+01 -2.01032e-02  -6.66872e-02  -1.35589e-01
Si    4.40167e+00   7.35543e+00   1.02918e+01  3.75289e-02  -1.09169e-01  -1.46472e-01
Si    5.87079e+00   5.86801e+00   5.87473e+00  3.61230e-02   5.52786e-02   3.32514e-03
Si    8.80920e+00   8.82342e+00   5.86960e+00  2.99821e-03  -9.29429e-02   1.04398e-01
Si    5.87058e+00   8.81339e+00   8.81084e+00  4.56068e-02  -6.01019e-02   5.11334e-02
Si    8.81265e+00   5.87074e+00   8.81860e+00  4.70870e-02   1.24958e-01  -5.19227e-02
Si    7.34375e+00   7.33703e+00   7.34310e+00 -6.32657e-03   7.01499e-02  -6.59376e-03
Si    1.02789e+01   1.02887e+01   7.34221e+00  4.87547e-02  -2.69463e-02  -7.63245e-03
Si    7.33874e+00   1.02733e+01   1.02864e+01  7.68380e-02   4.70940e-02  -7.45679e-02
Si    1.02857e+01   7.34982e+00   1.02834e+01 -2.90401e-02  -1.26880e-01   6.29738e-02
