64
Lattice="11.926476 0 0 0 11.926476 0 0 0 11.926476 " PBC="1 1 1" Properties=species:S:1:pos:R:3:force:R:3 Energy="-248.247519259"
Si    1.02734e-03   1.19264e+01   1.94101e-03 -7.93799e-03   1.32206e-02  -2.68685e-02
Si    2.97882e+00   2.98346e+00   3.91292e-04  4.30026e-02  -2.79227e-02  -1.68656e-03
Si    1.19253e+01   2.97892e+00   2.98454e+00  3.42329e-03   2.88105e-02  -2.75893e-02
Si    2.97868e+00   1.60884e-03   2.98309e+00  3.74262e-02  -2.83794e-02  -9.95695e-03
Si    1.49008e+00   1.49077e+00   1.49337e+00 -3.89683e-03   1.05783e-02  -1.44403e-02
Si    4.47181e+00   4.47525e+00   1.49096e+00 -8.05782e-03  -4.42587e-02   2.89855e-03
Si    1.48839e+00   4.47430e+00   4.47071e+00  5.07652e-02  -2.59025e-02   1.37406e-03
Si    4.47275e+00   1.48957e+00   4.47431e+00 -1.44686e-02   1.29450e-02  -5.60578e-03
Si    5.96519e+00   1.19248e+01   8.63684e-04 -8.37435e-05   1.33165e-02  -1.64216e-02
Si    8.94244e+00   2.98109e+00   1.19241e+01  5.32847e-02   7.16995e-03   1.63315e-02
Si    5.96112e+00   2.97990e+00   2.98148e+00  2.73713e-02   2.11301e-02   1.20046e-03
Si    8.94234e+00   1.19249e+01   2.97868e+00  3.82200e-02   3.12388e-02   3.62249e-02
Si    7.45642e+00   1.49112e+00   1.48883e+00 -3.86211e-02  -3.61929e-03   1.35616e-02
Si    1.04382e+01   4.47268e+00   1.48808e+00 -4.33907e-02  -2.14771e-02   4.02465e-02
Si    7.45420e+00   4.47326e+00   4.47422e+00  4.11668e-03  -2.65749e-02  -3.43090e-02
Si    1.04377e+01   1.48933e+00   4.47522e+00 -4.19723e-02  -1.10477e-02  -2.47351e-02
Si    1.19263e+01   5.96183e+00   2.94455e-04  1.61248e-02   2.97413e-02  -2.97007e-03
Si    2.98089e+00   8.94309e+00   2.47750e-03 -5.37234e-03   3.06145e-02  -1.70926e-02
Si    2.61892e-03   8.94687e+00   2.98122e+00 -5.69501e-02  -2.13787e-02   1.11953e-03
Si    2.98291e+00   5.96533e+00   2.97911e+00 -1.75223e-02  -4.93012e-03   3.29154e-02
Si    1.49027e+00   7.45489e+00   1.49365e+00 -2.90700e-03  -1.26751e-02  -3.32442e-02
Si    4.47365e+00   1.04365e+01   1.48905e+00 -3.06854e-02  -6.56951e-04   3.35039e-02
Si    1.48958e+00   1.04336e+01   4.47126e+00  2.37613e-02   1.70982e-02   3.84436e-02
Si    4.47373e+00   7.45678e+00   4.46954e+00 -1.17787e-02  -4.08793e-02   3.20375e-02
Si    5.96212e+00   5.96055e+00   2.23485e-03  9.90028e-03   2.27142e-02  -2.98494e-02
Si    8.94601e+00   8.94680e+00   2.49471e-03 -1.64450e-02  -4.46020e-02  -6.26734e-03
Si    5.96117e+00   8.94468e+00   2.98189e+00  3.03642e-02   1.20015e-02  -2.56109e-02
Si    8.94495e+00   5.96455e+00   2.98354e+00 -5.82900e-04  -3.59526e-02  -3.57040e-02
Si    7.45247e+00   7.45170e+00   1.49149e+00  1.11089e-02   2.78440e-02   3.81329e-03
Si    1.04341e+01   1.04376e+01   1.49060e+00  3.05384e-02  -1.53757e-02   9.81245e-03
Si    7.45519e+00   1.04348e+01   4.47006e+00 -1.75265e-02   1.12374e-03   2.21908e-02
Si    1.04345e+01   7.45204e+00   4.47084e+00  3.53405e-02   3.66926e-02   2.17515e-02
Si    2.64872e-04   1.19256e+01   5.96470e+00  1.74717e-02   5.92067e-03  -1.55017e-02
Si    2.98250e+00   2.98323e+00   5.96497e+00 -2.52514e-02  -8.68209e-03  -3.88714e-02
Si    1.58541e-04   2.98017e+00   8.94781e+00  1.56998e-02   3.56686e-02  -2.93890e-02
Si    2.97927e+00   1.19260e+01   8.94280e+00  3.36657e-02   1.52503e-02   8.11301e-03
Si    1.49085e+00   1.49264e+00   7.45390e+00 -6.89287e-03  -1.20160e-02   4.03497e-03
Si    4.47204e+00   4.47142e+00   7.45152e+00  2.66664e-02   1.61818e-02   4.26232e-02
Si    1.49215e+00   4.47393e+00   1.04364e+01 -1.45811e-02  -5.13188e-03  -9.46792e-03
Si    4.47483e+00   1.48862e+00   1.04339e+01 -3.96012e-02   1.23168e-02   2.88910e-02
Si    5.96531e+00   9.60779e-04   5.96334e+00 -6.35991e-03  -2.20077e-02  -8.14289e-03
Si    8.94648e+00   2.98327e+00   5.96357e+00 -7.63205e-03  -1.56243e-02  -2.52751e-03
Si    5.96437e+00   2.98012e+00   8.94607e+00 -4.92485e-03   1.39622e-02  -3.04884e-02
Si    8.94426e+00   7.03119e-04   8.94546e+00  4.83303e-03  -2.94684e-03  -8.61167e-03
Si    7.45471e+00   1.49202e+00   7.45152e+00  7.73995e-03  -3.10626e-03   2.85726e-02
Si    1.04339e+01   4.47123e+00   7.45683e+00  3.96001e-02   1.16694e-02  -2.20776e-02
Si    7.45499e+00   4.47048e+00   1.04368e+01 -2.93386e-02   1.62851e-02  -1.02632e-02
Si    1.04377e+01   1.49320e+00   1.04339e+01 -2.48213e-02  -3.92214e-02   3.47031e-02
Si    2.66887e-03   5.96164e+00   5.96117e+00 -4.48827e-02   1.33576e-02   3.35040e-02
Si    2.98240e+00   8.94209e+00   5.96500e+00  8.11575e-03   4.01899e-02  -2.83124e-02
Si    1.19243e+01   8.94239e+00   8.94676e+00  1.68031e-02   2.37314e-02  -3.33788e-02
Si    2.98438e+00   5.96479e+00   8.94676e+00 -1.86559e-02  -2.11968e-02  -2.68534e-02
Si    1.49341e+00   7.45353e+00   7.45297e+00 -2.78162e-02  -1.13141e-02   2.75812e-02
Si    4.47366e+00   1.04364e+01   7.45515e+00 -1.13867e-02  -7.39100e-03  -1.53318e-02
Si    1.49208e+00   1.04369e+01   1.04340e+01 -2.15369e-02  -3.05772e-02   2.88726e-02
Si    4.46994e+00   7.45405e+00   1.04383e+01  3.56196e-02  -4.08450e-03   1.61889e-03
Si    5.96464e+00   5.96124e+00   5.96065e+00 -2.54398e-02   3.94733e-02   1.48184e-02
Si    8.94535e+00   8.94535e+00   5.96428e+00 -2.53426e-03  -3.97754e-03  -3.35047e-02
Si    5.96170e+00   8.94455e+00   8.94604e+00  7.24309e-03  -1.61822e-03   7.94906e-03
Si    8.94282e+00   5.96137e+00   8.94449e+00 -5.92503e-03   2.32069e-02   1.68826e-03
Si    7.45256e+00   7.45655e+00   7.45220e+00  4.47780e-03  -3.38685e-02   1.87418e-02
Si    1.04351e+01   1.04376e+01   7.45129e+00  4.48235e-03  -2.46473e-02   4.99036e-02
Si    7.45505e+00   1.04328e+01   1.04382e+01 -4.91609e-03   2.44493e-02  -2.31264e-02
Si    1.04334e+01   7.45197e+00   1.04363e+01  3.52921e-03   5.14104e-03   9.15930e-03
