8
Lattice="5.53962 0 0 0 5.53962 0 0 0 5.53962 " PBC="1 1 1" Properties=species:S:1:pos:R:3:force:R:3 Energy="-34.5169288023"
Si    0.00000e+00   0.00000e+00   0.00000e+00 -3.33067e-16  -3.53705e-16  -4.71607e-16
Si    2.76981e+00   2.76981e+00   0.00000e+00  7.16094e-15   7.10543e-15   1.11022e-16
Si    0.00000e+00   2.76981e+00   2.76981e+00  0.00000e+00   7.06257e-15   7.20111e-15
Si    2.76981e+00   0.00000e+00   2.76981e+00  7.04992e-15   1.66533e-16   7.10543e-15
Si    1.38490e+00   1.38490e+00   1.38490e+00  1.11022e-16   1.24781e-16   1.38699e-16
Si    4.15472e+00   4.15472e+00   1.38490e+00 -7.07055e-15  -7.01489e-15  -3.05232e-16
Si    1.38490e+00   4.15472e+00   4.15472e+00 -2.77556e-16  -6.99441e-15  -6.99441e-15
Si    4.15472e+00   1.38490e+00   4.15472e+00 -7.01504e-15  -2.49721e-16  -6.95937e-15
