64
Lattice="11.904752 0 0 0 11.904752 0 0 0 11.904752 " PBC="1 1 1" Properties=species:S:1:pos:R:3:force:R:3 Energy="-249.303298738"
Si    1.19003e+01   1.19018e+01   1.29735e-03  9.75926e-02  -3.45794e-02  -5.46098e-02
Si    2.98301e+00   2.97128e+00   1.19019e+01 -9.62892e-02   1.43059e-02   1.33372e-02
Si    8.39549e-04   2.98353e+00   2.97519e+00  1.35617e-02  -9.99641e-02   6.30616e-02
Si    2.98052e+00   1.56817e-04   2.98404e+00 -3.27986e-02  -2.50647e-02  -1.45164e-01
Si    1.48432e+00   1.48833e+00   1.48298e+00  6.19926e-02  -1.83986e-02   7.53467e-02
Si    4.45974e+00   4.45702e+00   1.48833e+00  4.67018e-02   1.20157e-01  -5.51957e-02
Si    1.49144e+00   4.46666e+00   4.46893e+00  6.51255e-03  -1.74937e-02  -1.03279e-01
Si    4.46191e+00   1.48620e+00   4.46579e+00  1.40947e-02   6.47447e-02   5.82598e-02
Si    5.95141e+00   1.18966e+01   1.18987e+01  3.16121e-03   6.12936e-02   3.52925e-02
Si    8.93916e+00   2.98725e+00   3.32685e-03 -1.90738e-01  -1.42452e-01   2.09498e-02
Si    5.94579e+00   2.97420e+00   2.97669e+00  2.60442e-02  -8.32169e-03   8.81025e-03
Si    8.93141e+00   1.19022e+01   2.98468e+00  1.68042e-02  -2.26570e-03  -1.49056e-01
Si    7.43009e+00   1.47964e+00   1.49529e+00  1.38943e-01   8.20612e-02  -9.14303e-02
Si    1.04199e+01   4.46050e+00   1.49252e+00 -5.04865e-02   1.01381e-01   1.72162e-02
Si    7.44499e+00   4.46385e+00   4.45393e+00 -8.00986e-02   4.97797e-03   5.06483e-02
Si    1.04132e+01   1.48730e+00   4.46749e+00  9.12153e-02   7.90917e-03  -1.06412e-02
Si    1.18944e+01   5.94574e+00   1.38680e-03  8.08737e-02   7.84018e-02   3.03845e-02
Si    2.97017e+00   8.93280e+00   1.18969e+01  1.15277e-01  -2.63752e-02   7.86552e-02
Si    1.19010e+01   8.93077e+00   2.98371e+00  6.33929e-02  -4.53389e-02  -1.53972e-01
Si    2.96897e+00   5.95818e+00   2.96759e+00  7.89856e-02  -6.08966e-02   8.40288e-02
Si    1.49220e+00   7.44525e+00   1.48285e+00 -1.51652e-01  -8.83160e-03   3.56815e-03
Si    4.47214e+00   1.04113e+01   1.48847e+00 -8.34337e-02   2.93426e-02   1.44149e-02
Si    1.49330e+00   1.04092e+01   4.45757e+00 -3.38712e-02   7.48346e-02   1.43526e-01
Si    4.46093e+00   7.43958e+00   4.46781e+00  7.42272e-02  -8.52020e-03  -8.29414e-02
Si    5.95113e+00   5.95816e+00   1.18942e+01 -1.69225e-02  -7.06901e-02   1.50163e-01
Si    8.92927e+00   8.92752e+00   1.18998e+01 -4.02751e-02  -3.27190e-02   4.65510e-02
Si    5.96258e+00   8.93335e+00   2.98516e+00 -1.28662e-01  -5.36522e-02  -5.02834e-02
Si    8.92480e+00   5.95722e+00   2.97396e+00  3.53616e-02  -2.92045e-02  -5.17877e-02
Si    7.43296e+00   7.44659e+00   1.48974e+00  7.01324e-02  -3.20917e-02  -5.57079e-02
Si    1.04203e+01   1.04100e+01   1.47976e+00 -6.62243e-02   5.14632e-02   1.22954e-01
Si    7.44418e+00   1.04214e+01   4.45744e+00  1.59913e-02  -2.51333e-02   1.73388e-01
Si    1.04145e+01   7.44193e+00   4.45652e+00  9.37815e-03  -4.23793e-02   1.22444e-01
Si    3.15266e-03   1.19035e+01   5.96129e+00  6.89051e-02   2.99546e-02  -1.01317e-01
Si    2.97418e+00   2.98179e+00   5.95763e+00  6.08601e-02  -4.25757e-02  -4.43223e-02
Si    1.19001e+01   2.97639e+00   8.92207e+00  1.05374e-02  -3.85036e-02   1.34896e-01
Si    2.97496e+00   1.71768e-03   8.93385e+00  8.03299e-02  -2.20085e-03  -4.90882e-02
Si    1.49714e+00   1.49350e+00   7.44816e+00 -8.89933e-02  -4.33230e-02  -4.99762e-02
Si    4.46614e+00   4.46971e+00   7.43537e+00  1.55257e-02  -2.60441e-02   8.98787e-02
Si    1.47766e+00   4.45789e+00   1.04257e+01  6.50519e-02   1.00384e-02  -8.60708e-02
Si    4.46954e+00   1.49432e+00   1.04115e+01  4.73822e-03  -7.87579e-02   3.52528e-02
Si    5.95970e+00   8.57427e-03   5.95327e+00 -7.61770e-02  -1.05318e-01  -3.93095e-03
Si    8.92102e+00   2.97247e+00   5.94377e+00  8.81209e-02   9.11197e-02   7.45547e-02
Si    5.96095e+00   2.98288e+00   8.93396e+00 -7.92605e-02  -4.23490e-03  -1.22284e-01
Si    8.93238e+00   8.43495e-03   8.92904e+00 -4.06555e-02  -8.44753e-02  -6.26020e-03
Si    7.44128e+00   1.49550e+00   7.43623e+00  1.60684e-02  -2.16064e-02   7.30288e-02
Si    1.04128e+01   4.46521e+00   7.44643e+00  2.11768e-02  -5.10341e-02  -1.79563e-01
Si    7.43930e+00   4.47027e+00   1.04118e+01  7.97500e-02  -2.19522e-02   7.66910e-02
Si    1.04161e+01   1.48456e+00   1.04262e+01  2.67372e-02   8.78441e-02  -8.91370e-02
Si    7.39735e-03   5.94601e+00   5.94558e+00 -1.30328e-01   8.14678e-02   7.49604e-02
Si    2.98176e+00   8.92318e+00   5.95137e+00 -5.85534e-02   3.93428e-02   3.23772e-02
Si    1.19033e+01   8.93344e+00   8.92767e+00  1.53872e-02  -1.08435e-01   1.85138e-02
Si    2.96903e+00   5.94859e+00   8.93121e+00  4.63393e-02   1.93573e-02   2.84312e-02
Si    1.48761e+00   7.43883e+00   7.43897e+00 -7.16409e-03   7.22374e-03   3.88551e-03
Si    4.46446e+00   1.04126e+01   7.44502e+00 -1.24222e-02   1.18296e-01  -6.73272e-02
Si    1.49418e+00   1.04130e+01   1.04097e+01 -1.21046e-01   8.36746e-02   6.32391e-02
Si    4.46567e+00   7.44320e+00   1.04212e+01 -1.08672e-01  -7.65784e-03  -8.61509e-02
Si    5.95769e+00   5.95287e+00   5.94908e+00 -2.16481e-02  -8.82388e-04  -1.77128e-02
Si    8.92654e+00   8.92533e+00   5.95766e+00  3.97867e-02   7.17899e-02  -7.41828e-02
Si    5.94134e+00   8.93637e+00   8.93427e+00  1.13908e-01  -1.02058e-01  -3.30170e-02
Si    8.92911e+00   5.94612e+00   8.92428e+00 -5.93971e-02   1.04603e-01   2.53446e-02
Si    7.43627e+00   7.44414e+00   7.44135e+00 -7.24819e-03  -2.28930e-02   5.24691e-02
Si    1.04247e+01   1.04184e+01   7.44139e+00 -1.12347e-01   8.78766e-04   1.68189e-02
Si    7.44071e+00   1.04114e+01   1.04165e+01  2.51673e-02   7.76160e-02  -4.61137e-02
Si    1.04099e+01   7.43488e+00   1.04173e+01  5.67292e-02   3.22456e-02  -5.28206e-02
