64
Lattice="10.21028 0 0 0 10.21028 0 0 0 10.21028 " PBC="1 1 1" Properties=species:S:1:pos:R:3:force:R:3 Energy="-262.729703208"
Si    4.49920e-04   2.03038e-03   1.99882e-03  9.92848e-03  -2.40488e-02  -2.83914e-03
Si    2.55418e+00   2.55020e+00   9.78949e-04 -1.61528e-02   1.48123e-02  -1.09825e-02
Si    1.02097e+01   2.55266e+00   2.55338e+00 -1.15078e-02   9.49975e-04  -5.28683e-03
Si    2.55101e+00   1.02091e+01   2.55369e+00  3.95952e-02   2.45784e-02  -6.40496e-03
Si    1.27773e+00   1.27807e+00   1.27769e+00 -2.68290e-02  -2.79557e-02   1.34235e-02
Si    3.82649e+00   3.82690e+00   1.27757e+00  8.61770e-02   6.59333e-02  -6.04954e-02
Si    1.27495e+00   3.82760e+00   3.83068e+00  4.45059e-02   2.11266e-02  -8.11095e-02
Si    3.83115e+00   1.27660e+00   3.82722e+00 -3.32651e-02  -1.33638e-02   3.98694e-02
Si    5.10652e+00   1.02102e+01   6.70065e-04 -4.22842e-02   8.03528e-03  -5.86960e-03
Si    7.65944e+00   2.55237e+00   1.02103e+01 -2.58319e-02  -2.95839e-03   4.29720e-03
Si    5.10606e+00   2.55334e+00   2.55139e+00 -1.49097e-02  -2.01928e-02  -6.05414e-03
Si    7.65550e+00   1.38577e-03   2.55247e+00  7.13878e-02  -1.98095e-02  -5.22944e-02
Si    6.38055e+00   1.27634e+00   1.27508e+00  2.84389e-02   3.00743e-02   5.82402e-03
Si    8.93303e+00   3.82950e+00   1.27658e+00  4.39287e-02  -3.22376e-02  -1.04859e-02
Si    6.38050e+00   3.82832e+00   3.82762e+00  4.62480e-02   1.75088e-02   1.70159e-02
Si    8.93441e+00   1.27456e+00   3.82936e+00 -2.48425e-02   3.68447e-02   2.76602e-02
Si    1.66337e-03   5.10339e+00   1.19614e-03 -2.78030e-02   1.59437e-02  -3.05012e-02
Si    2.55210e+00   7.65913e+00   1.55181e-03 -6.41907e-03  -2.35949e-02   2.22760e-03
Si    1.46043e-03   7.65818e+00   2.55341e+00 -4.83639e-02  -2.52698e-02  -3.47108e-02
Si    2.55332e+00   5.10476e+00   2.55264e+00 -3.77662e-02  -2.41282e-02   5.64099e-02
Si    1.27629e+00   6.37906e+00   1.27735e+00  1.35363e-02   4.81525e-02  -3.80373e-03
Si    3.82947e+00   8.93541e+00   1.27608e+00 -2.74231e-02   4.13043e-03   1.64367e-03
Si    1.27567e+00   8.93293e+00   3.82915e+00  2.95273e-02   7.74277e-03   4.03938e-02
Si    3.82673e+00   6.38210e+00   3.83112e+00  6.22749e-02   2.48741e-03  -6.29636e-02
Si    5.10714e+00   5.10707e+00   1.02095e+01 -3.85670e-02  -1.16426e-01   2.50368e-02
Si    7.65875e+00   7.65785e+00   8.13335e-04 -8.82623e-02  -2.70692e-02  -1.69698e-02
Si    5.10396e+00   7.65826e+00   2.55026e+00  4.20026e-04  -1.38227e-02   7.76927e-02
Si    7.65871e+00   5.10412e+00   2.55086e+00 -2.88602e-02   1.99045e-02   6.37911e-02
Si    6.38057e+00   6.37972e+00   1.27840e+00  4.48399e-02   4.93632e-02  -4.51089e-02
Si    8.93289e+00   8.93199e+00   1.27433e+00  3.05181e-02   7.20117e-02   7.97056e-02
Si    6.38273e+00   8.93573e+00   3.82648e+00 -3.58668e-02  -6.46764e-02  -1.89615e-03
Si    8.93206e+00   6.38342e+00   3.82893e+00  3.62559e-02  -3.84902e-02   1.84071e-03
Si    2.16672e-03   4.14755e-04   5.10654e+00 -2.88369e-02  -2.42729e-02  -2.43424e-02
Si    2.55218e+00   2.55423e+00   5.10455e+00  1.41451e-02  -7.60300e-02   7.24859e-03
Si    1.02095e+01   2.55220e+00   7.65717e+00  5.81999e-02   1.29871e-02   3.32644e-02
Si    2.55433e+00   1.02096e+01   7.65705e+00 -2.94716e-02   4.97477e-03  -2.39207e-03
Si    1.27586e+00   1.27590e+00   6.38226e+00  4.93047e-02   2.76055e-02  -3.73711e-03
Si    3.82727e+00   3.82999e+00   6.38017e+00  6.32456e-02   1.15080e-02   3.33030e-02
Si    1.27865e+00   3.82698e+00   8.93556e+00 -2.72211e-02  -2.13984e-03  -2.66280e-02
Si    3.82811e+00   1.27416e+00   8.93518e+00  6.72076e-02   3.66950e-02  -3.85106e-02
Si    5.10768e+00   1.02078e+01   5.10380e+00 -2.47607e-02   6.54271e-02   2.76323e-02
Si    7.65752e+00   2.55392e+00   5.10755e+00  4.77737e-03  -4.20781e-02  -5.21144e-02
Si    5.10726e+00   2.55302e+00   7.65743e+00 -1.00937e-01  -2.98352e-02  -5.88851e-03
Si    7.65741e+00   9.90353e-04   7.65887e+00  5.65041e-02  -2.73429e-02   2.41563e-02
Si    6.38262e+00   1.27569e+00   6.38370e+00 -2.43215e-02  -4.34119e-03  -5.96349e-02
Si    8.93549e+00   3.82762e+00   6.38212e+00 -9.10288e-03   6.52774e-02  -7.51707e-03
Si    6.38319e+00   3.82634e+00   8.93184e+00 -1.09857e-02   5.54113e-02   7.04072e-02
Si    8.93649e+00   1.27777e+00   8.93520e+00 -4.03334e-02  -3.43105e-02  -1.80114e-02
Si    1.87047e-03   5.10377e+00   5.10313e+00 -7.50775e-02   4.87219e-02   3.74672e-02
Si    2.55381e+00   7.65758e+00   5.10647e+00 -4.62164e-02   2.48556e-02  -2.46617e-02
Si    1.02102e+01   7.65657e+00   7.65711e+00  5.69499e-02   2.50659e-02   2.50228e-02
Si    2.55347e+00   5.10635e+00   7.66011e+00 -1.71334e-02  -7.10048e-03  -3.06192e-02
Si    1.27721e+00   6.38138e+00   6.37953e+00 -6.04809e-03  -2.58562e-02   4.49627e-02
Si    3.82887e+00   8.93353e+00   6.38018e+00  3.45426e-02   7.00756e-03   1.87592e-02
Si    1.27689e+00   8.93601e+00   8.93485e+00 -2.73040e-02  -2.77440e-02  -2.11425e-02
Si    3.82924e+00   6.38218e+00   8.93635e+00 -5.52259e-03   2.92817e-02  -1.57760e-02
Si    5.10700e+00   5.10658e+00   5.10418e+00 -5.62647e-02  -3.89431e-02  -3.74751e-03
Si    7.65655e+00   7.66004e+00   5.10522e+00  1.95910e-02  -2.30023e-03   8.81442e-03
Si    5.10472e+00   7.65842e+00   7.65868e+00  6.25892e-03  -2.86633e-02  -3.14969e-02
Si    7.65908e+00   5.10485e+00   7.66001e+00  1.17121e-02   2.20059e-02  -5.26484e-02
Si    6.38159e+00   6.38047e+00   6.37991e+00  2.18087e-02   3.40193e-02   7.11302e-02
Si    8.93647e+00   8.93383e+00   6.38246e+00 -5.65058e-02   2.52783e-02  -7.15422e-03
Si    6.37966e+00   8.93517e+00   8.93481e+00  5.86499e-02  -3.05391e-02  -2.24136e-03
Si    8.93520e+00   6.38350e+00   8.93549e+00  1.05180e-02  -6.01815e-02   7.04029e-03
