8
Lattice="5.713412 0 0 0 5.713412 0 0 0 5.713412 " PBC="1 1 1" Properties=species:S:1:pos:R:3:force:R:3 Energy="-33.5729461643"
Si    0.00000e+00   0.00000e+00   0.00000e+00  5.77316e-15   5.39349e-15   5.82437e-15
Si    2.85671e+00   2.85671e+00   0.00000e+00  7.77156e-16   6.66134e-16   4.55191e-15
Si    0.00000e+00   2.85671e+00   2.85671e+00  6.66134e-16   7.37550e-16   7.27449e-16
Si    2.85671e+00   0.00000e+00   2.85671e+00 -1.11022e-15   2.88658e-15   2.33147e-15
Si    1.42835e+00   1.42835e+00   1.42835e+00  2.22045e-16   1.95640e-16   4.17685e-16
Si    4.28506e+00   4.28506e+00   1.42835e+00 -4.77316e-15  -8.08443e-15   2.94559e-15
Si    1.42835e+00   4.28506e+00   4.28506e+00  2.66454e-15  -4.66294e-15  -8.43769e-15
Si    4.28506e+00   1.42835e+00   4.28506e+00 -4.88418e-15   3.11873e-15  -8.57743e-15
