64
Lattice="10.731656 0 0 0 10.731656 0 0 0 10.731656 " PBC="1 1 1" Properties=species:S:1:pos:R:3:force:R:3 Energy="-276.454754305"
Si    1.13125e-02   1.35859e-04   1.07239e+01 -4.43378e-01  -1.34955e-01   2.80900e-01
Si    2.68301e+00   2.66810e+00   1.07269e+01 -9.25790e-03   4.93426e-01  -1.07846e-02
Si    1.88742e-02   2.69591e+00   2.65960e+00 -5.45666e-01  -1.29976e-01   3.29736e-01
Si    2.65771e+00   1.84024e-02   2.69741e+00  3.10089e-01   1.67688e-01  -6.33885e-01
Si    1.31033e+00   1.36201e+00   1.32080e+00  5.80559e-01  -3.62066e-01   2.03325e-01
Si    4.04392e+00   4.01513e+00   1.34184e+00 -3.35536e-01   2.36602e-03  -1.56941e-01
Si    1.31490e+00   4.00824e+00   4.02870e+00  5.51432e-01   2.35744e-01  -2.14606e-02
Si    4.03228e+00   1.32475e+00   4.03239e+00 -1.72530e-01   1.62812e-01  -2.32704e-01
Si    5.34443e+00   1.07008e+01   2.66166e-02  7.71303e-01   7.26117e-01  -5.68260e-01
Si    8.05579e+00   2.68027e+00   1.39766e-02 -1.21017e-02   4.98130e-01  -2.37733e-01
Si    5.35086e+00   2.66582e+00   2.67274e+00  5.77831e-01   2.38837e-01   4.06995e-01
Si    8.07234e+00   1.07076e+01   2.68720e+00 -4.17951e-01   6.76326e-01   4.42807e-02
Si    6.71922e+00   1.35316e+00   1.33069e+00 -1.62894e-01  -6.39315e-01   3.41929e-01
Si    9.40094e+00   4.03986e+00   1.35348e+00 -5.59080e-02  -1.01752e-01  -2.43670e-01
Si    6.73140e+00   4.03220e+00   4.03308e+00 -4.55573e-01  -8.82527e-02  -3.23751e-01
Si    9.41090e+00   1.34935e+00   4.02840e+00 -1.61124e-01   9.36989e-02  -2.54170e-01
Si    7.67318e-03   5.38225e+00   1.64268e-02  6.64746e-03  -2.03027e-01  -4.00897e-01
Si    2.69697e+00   8.05106e+00   1.34319e-02 -6.20837e-02   3.23757e-01  -3.58512e-01
Si    2.74509e-02   8.06850e+00   2.68495e+00 -2.43516e-01  -4.87752e-01  -3.72436e-01
Si    2.70311e+00   5.34200e+00   2.69962e+00 -3.79585e-01   2.02753e-01  -2.15507e-01
Si    1.36472e+00   6.70628e+00   1.31265e+00  3.12363e-02  -3.94254e-02   8.96470e-01
Si    4.02064e+00   9.41580e+00   1.33647e+00 -4.68823e-01  -4.34957e-01   6.59572e-01
Si    1.35979e+00   9.39370e+00   3.99928e+00 -1.85196e-02  -8.79382e-02   8.38486e-01
Si    4.02071e+00   6.71216e+00   4.03613e+00  3.16774e-01  -3.55155e-01  -7.98112e-02
Si    5.37232e+00   5.38124e+00   1.36849e-02  1.29592e-01  -4.90671e-01  -2.98978e-01
Si    8.08036e+00   8.02787e+00   1.12109e-02 -7.27545e-01   3.41089e-01   3.36739e-03
Si    5.34852e+00   8.05105e+00   2.67949e+00 -7.79177e-03   1.49905e-01   8.59720e-02
Si    8.07749e+00   5.37895e+00   2.68813e+00 -5.66378e-01  -1.55246e-01  -9.49880e-02
Si    6.68762e+00   6.70083e+00   1.35832e+00  5.71742e-01   2.01960e-01  -4.33064e-02
Si    9.38078e+00   9.38628e+00   1.35065e+00  6.29951e-01  -2.83449e-02  -2.34987e-01
Si    6.69161e+00   9.40130e+00   4.01800e+00  4.82991e-01  -4.14778e-01   5.75816e-02
Si    9.38802e+00   6.71188e+00   4.00856e+00  4.29793e-01   4.24471e-01   4.05120e-01
Si    1.32071e-02   1.18847e-02   5.35902e+00 -8.54174e-02  -4.01027e-01   2.37395e-01
Si    2.67991e+00   2.66302e+00   5.35051e+00 -1.05685e-01   2.24386e-01   5.27365e-01
Si    2.12438e-02   2.66471e+00   8.02649e+00 -6.21394e-01   6.27349e-01   1.00310e+00
Si    2.67702e+00   1.07046e+01   8.01605e+00  9.01661e-02   4.34955e-01   6.23787e-01
Si    1.31403e+00   1.35022e+00   6.73798e+00  8.03848e-01  -4.46114e-01  -8.98439e-01
Si    4.01250e+00   4.03919e+00   6.72067e+00  2.75384e-01  -7.44507e-01  -4.38861e-01
Si    1.35360e+00   4.04914e+00   9.37924e+00 -2.04277e-01  -4.65519e-01   1.15101e-01
Si    4.03284e+00   1.34040e+00   9.40487e+00 -2.06041e-01  -5.25294e-01  -3.91541e-01
Si    5.38204e+00   5.31984e-03   5.34710e+00 -3.06737e-01  -1.57045e-01   5.65846e-01
Si    8.05291e+00   2.69472e+00   5.36907e+00  1.78170e-01  -2.09271e-01  -2.15307e-01
Si    5.37153e+00   2.67891e+00   8.05771e+00 -2.48165e-01  -8.66240e-03  -2.98118e-01
Si    8.06785e+00   5.82798e-03   8.04236e+00 -7.44368e-02   4.29363e-01   8.22328e-02
Si    6.71911e+00   1.36224e+00   6.69081e+00 -1.03921e-01  -3.50445e-01   2.49463e-01
Si    9.36883e+00   4.00354e+00   6.72879e+00  6.90481e-01   3.14155e-01  -5.25804e-01
Si    6.70703e+00   4.01735e+00   9.36384e+00 -8.63191e-03   8.00620e-02   7.58836e-01
Si    9.39661e+00   1.34941e+00   9.41834e+00  1.32830e-01  -5.64675e-02  -5.45398e-01
Si    9.49920e-03   5.38097e+00   5.36468e+00 -4.28085e-01  -2.26504e-01   3.43755e-01
Si    2.70657e+00   8.03439e+00   5.37126e+00 -7.86424e-01   1.15931e-01  -3.07994e-01
Si    1.07201e+01   8.03373e+00   8.02653e+00  2.98380e-01   4.45967e-01   6.78794e-01
Si    2.68967e+00   5.35139e+00   8.02423e+00  1.23790e-01   8.76432e-01   7.69733e-01
Si    1.34265e+00   6.72580e+00   6.72985e+00  2.04922e-01  -3.87121e-01  -5.50334e-01
Si    4.00398e+00   9.36347e+00   6.68501e+00  9.04949e-01   3.56108e-01   2.46875e-01
Si    1.33199e+00   9.39285e+00   9.39470e+00  1.95248e-01  -4.04663e-01  -3.13873e-01
Si    4.05205e+00   6.72821e+00   9.41487e+00 -5.26254e-01  -4.81846e-01  -4.23146e-01
Si    5.37007e+00   5.36197e+00   5.38692e+00 -1.54767e-01  -6.89464e-03  -4.21242e-01
Si    8.07639e+00   8.07296e+00   5.38834e+00 -6.60475e-01  -3.91020e-01  -4.26829e-01
Si    5.37869e+00   8.04737e+00   8.06855e+00  6.50000e-03   3.21722e-01  -3.21948e-01
Si    8.03039e+00   5.33878e+00   8.02571e+00  4.24601e-01   7.30115e-01   5.96340e-01
Si    6.69506e+00   6.69695e+00   6.70591e+00  3.66466e-01   3.84022e-01   5.06889e-02
Si    9.39499e+00   9.38453e+00   6.73101e+00  3.13989e-01   4.59179e-01  -4.58572e-01
Si    6.73917e+00   9.41528e+00   9.38480e+00 -2.16130e-01  -4.85993e-01   4.02865e-01
Si    9.41177e+00   6.72848e+00   9.40109e+00 -4.16665e-01  -8.36821e-01  -4.85729e-01
