64
Lattice="11.926476 0 0 0 11.926476 0 0 0 11.926476 " PBC="1 1 1" Properties=species:S:1:pos:R:3:force:R:3 Energy="-248.223001826"
Si    7.23965e-03   1.19253e+01   1.32177e-03 -4.28468e-02   7.22167e-02   3.00658e-02
Si    2.98484e+00   2.98363e+00   1.19262e+01  6.01927e-03  -2.97257e-02   3.19734e-02
Si    1.19216e+01   2.97645e+00   2.98147e+00  3.79778e-02   1.00267e-01   4.85625e-02
Si    2.97991e+00   6.65320e-03   2.98706e+00  4.98653e-02  -3.91989e-02  -5.43156e-02
Si    1.49327e+00   1.49844e+00   1.49993e+00 -3.15557e-03  -6.14045e-02  -9.53467e-02
Si    4.47940e+00   4.46706e+00   1.48906e+00 -1.32644e-01   8.97293e-02  -1.89090e-02
Si    1.48988e+00   4.47361e+00   4.47392e+00 -6.11442e-03  -5.30321e-02  -4.75476e-02
Si    4.48147e+00   1.48337e+00   4.47133e+00 -4.69181e-02   7.71610e-02   1.06751e-02
Si    5.97330e+00   1.19235e+01   1.19259e+01 -1.53613e-01   5.90955e-02  -7.93215e-02
Si    8.94908e+00   2.97289e+00   1.19173e+01 -1.15977e-02   8.18507e-02   7.18070e-02
Si    5.95444e+00   2.98866e+00   2.97413e+00  1.70142e-01  -8.43288e-02   9.86687e-02
Si    8.94059e+00   5.41722e-03   2.97661e+00  4.05454e-02   3.31723e-02   8.71858e-02
Si    7.44791e+00   1.48968e+00   1.48138e+00  5.63183e-02   6.38641e-02   6.75418e-02
Si    1.04399e+01   4.47210e+00   1.48551e+00 -6.60033e-02  -2.74599e-02   2.76784e-02
Si    7.46044e+00   4.48061e+00   4.47414e+00 -1.44070e-01  -8.81855e-02  -8.37798e-03
Si    1.04367e+01   1.49680e+00   4.48199e+00 -2.76154e-02  -8.39140e-02  -5.91925e-02
Si    6.00056e-03   5.96442e+00   8.63905e-04  1.77618e-03   1.68416e-02  -1.30430e-02
Si    2.98920e+00   8.93937e+00   1.19255e+01 -6.48014e-02   1.34881e-01  -8.93284e-03
Si    1.19220e+01   8.94514e+00   2.98155e+00  8.63162e-02   1.11697e-02   1.26268e-02
Si    2.97582e+00   5.96237e+00   2.97772e+00  1.01538e-01   1.04079e-02  -6.14338e-03
Si    1.49903e+00   7.46343e+00   1.48678e+00 -9.30417e-02  -7.55374e-02   4.02992e-02
Si    4.47207e+00   1.04416e+01   1.49110e+00  4.67785e-02  -6.47172e-02   4.41406e-02
Si    1.49325e+00   1.04400e+01   4.46869e+00 -3.78933e-02  -5.91563e-02   7.26133e-02
Si    4.47732e+00   7.45928e+00   4.46177e+00 -1.29021e-01  -6.11096e-02   1.03252e-01
Si    5.96507e+00   5.95252e+00   1.19239e+01 -2.26665e-02   7.60873e-02   6.36438e-03
Si    8.93904e+00   8.94201e+00   1.05590e-02  6.45810e-02   4.47229e-02  -4.88829e-02
Si    5.96762e+00   8.94097e+00   2.99001e+00 -3.23250e-02   1.23929e-01  -1.18221e-01
Si    8.93818e+00   5.95884e+00   2.98273e+00  1.06854e-01   5.31576e-02  -5.95886e-02
Si    7.44450e+00   7.45010e+00   1.49274e+00  5.01334e-02  -2.69488e-02   1.25117e-02
Si    1.04391e+01   1.04424e+01   1.49954e+00 -5.48401e-02  -5.00042e-02  -9.06320e-02
Si    7.45571e+00   1.04407e+01   4.47406e+00  4.32396e-02  -9.08910e-02  -3.13405e-02
Si    1.04393e+01   7.44834e+00   4.47202e+00 -6.55383e-02   1.90610e-02   3.35232e-02
Si    5.78029e-03   1.19264e+01   5.97105e+00 -5.07389e-02   3.08140e-02  -7.83182e-02
Si    2.98258e+00   2.97879e+00   5.95802e+00  3.99567e-02   2.25417e-02  -1.82888e-03
Si    1.19223e+01   2.98228e+00   8.94710e+00  1.08415e-01   8.50619e-02  -1.07475e-02
Si    2.98358e+00   1.19238e+01   8.94763e+00 -1.14830e-01   7.99718e-02  -5.51113e-02
Si    1.48765e+00   1.50116e+00   7.45030e+00  6.47042e-02  -9.86043e-02   8.80222e-02
Si    4.47854e+00   4.47017e+00   7.44696e+00 -6.56017e-02   2.05807e-02   4.51870e-02
Si    1.50034e+00   4.47199e+00   1.04403e+01 -6.05209e-02   2.93417e-02  -6.67892e-02
Si    4.46885e+00   1.49693e+00   1.04274e+01  6.78258e-02  -1.15348e-01   1.12644e-01
Si    5.97203e+00   1.19188e+01   5.96006e+00 -6.73863e-02   7.47004e-02   3.66388e-02
Si    8.94605e+00   2.98714e+00   5.96711e+00  1.32241e-02   1.19458e-02  -8.78640e-03
Si    5.96038e+00   2.97252e+00   8.93886e+00  8.10023e-02   7.70050e-02  -1.66577e-02
Si    8.93531e+00   5.43548e-03   8.93894e+00  1.68670e-01   1.09152e-02   6.05192e-02
Si    7.46033e+00   1.48803e+00   7.44572e+00 -8.97737e-02   3.55091e-02   2.16719e-02
Si    1.04333e+01   4.47548e+00   7.46303e+00  4.16321e-02  -1.37823e-02  -8.17925e-02
Si    7.45537e+00   4.46673e+00   1.04354e+01 -1.15954e-02  -2.72677e-02  -7.18032e-02
Si    1.04458e+01   1.49859e+00   1.04318e+01 -9.37295e-02  -1.64125e-01   3.52889e-03
Si    6.17595e-03   5.96031e+00   5.96617e+00 -4.43627e-02   3.17631e-02   4.23023e-02
Si    2.97856e+00   8.94057e+00   5.96714e+00  4.72596e-02   6.85128e-02  -8.09227e-02
Si    1.19182e+01   8.94649e+00   8.94974e+00  1.92664e-02  -3.27743e-02  -4.50135e-02
Si    2.99308e+00   5.96877e+00   8.94898e+00 -5.76680e-02  -8.50416e-02  -4.51560e-02
Si    1.49498e+00   7.45624e+00   7.46117e+00 -5.29254e-02  -2.51318e-02   2.93499e-03
Si    4.46669e+00   1.04434e+01   7.45196e+00  7.85205e-02  -1.11993e-01   3.19663e-02
Si    1.48322e+00   1.04322e+01   1.04345e+01  1.16618e-01  -9.37637e-03   3.65009e-02
Si    4.47090e+00   7.45490e+00   1.04399e+01  8.92305e-02  -4.87663e-02   9.87838e-03
Si    5.95627e+00   5.97017e+00   5.95934e+00  1.09280e-01  -9.24234e-03  -3.60795e-03
Si    8.93926e+00   8.94040e+00   5.96824e+00  1.09175e-01   7.98582e-02  -9.26560e-02
Si    5.95872e+00   8.94568e+00   8.95415e+00  4.12809e-02   5.24112e-02  -1.02349e-01
Si    8.94220e+00   5.96245e+00   8.94110e+00 -2.51701e-02   2.29033e-02   5.49466e-02
Si    7.45664e+00   7.46050e+00   7.45030e+00 -1.17926e-01  -6.84556e-02   8.23591e-02
Si    1.04329e+01   1.04407e+01   7.45442e+00 -2.26518e-02  -4.55018e-02   1.49667e-02
Si    7.46127e+00   1.04412e+01   1.04346e+01 -5.27953e-02  -8.15011e-02   2.85986e-02
Si    1.04305e+01   7.44951e+00   1.04376e+01  4.23414e-03   3.10749e-02   2.91802e-02
