64
Lattice="10.405796 0 0 0 10.405796 0 0 0 10.405796 " PBC="1 1 1" Properties=species:S:1:pos:R:3:force:R:3 Energy="-269.996391019"
Si    2.84140e-02   1.03764e+01   1.03834e+01 -6.79225e-01   1.06355e+00   1.12016e+00
Si    2.62212e+00   2.59698e+00   1.04028e+01 -4.19240e-01   9.19271e-02  -3.20649e-01
Si    1.03825e+01   2.58288e+00   2.60405e+00  1.06628e-01   6.39890e-01   2.92340e-01
Si    2.59500e+00   1.03822e+01   2.58136e+00 -7.34386e-02   5.65948e-01   7.90516e-01
Si    1.30922e+00   1.32784e+00   1.33173e+00 -1.52278e-01  -6.48048e-01  -8.97755e-01
Si    3.88383e+00   3.89240e+00   1.32409e+00  3.41185e-02   5.74989e-01  -5.47947e-01
Si    1.30086e+00   3.90764e+00   3.91959e+00 -5.50627e-04  -6.28294e-01  -4.59770e-01
Si    3.91476e+00   1.28338e+00   3.90395e+00 -1.64524e-01  -8.34637e-02  -3.55313e-01
Si    5.19924e+00   1.03859e+01   1.04293e-02  1.96879e-01   2.75188e-01  -1.88248e-01
Si    7.78095e+00   2.58808e+00   2.49296e-02  2.94284e-01   1.56079e-01  -8.56409e-01
Si    5.17881e+00   2.61290e+00   2.58013e+00  2.45173e-01  -2.79326e-01   6.98583e-01
Si    7.79781e+00   1.03839e+01   2.62986e+00 -2.38536e-01   4.65813e-01  -1.03492e+00
Si    6.47335e+00   1.32000e+00   1.29754e+00  3.54093e-01  -8.56262e-01   4.85922e-01
Si    9.07441e+00   3.90120e+00   1.31099e+00  2.74409e-01   2.41741e-01   6.37116e-02
Si    6.48947e+00   3.88590e+00   3.91297e+00  3.83187e-02   2.32524e-01  -3.23622e-01
Si    9.08749e+00   1.27767e+00   3.88983e+00  1.63352e-01   3.88913e-01   4.10085e-01
Si    5.72299e-03   5.21786e+00   1.84956e-02 -6.12126e-01  -4.59042e-01  -3.10982e-01
Si    2.58586e+00   7.78217e+00   4.87509e-03  3.92764e-01   6.26740e-01  -1.72246e-01
Si    3.70423e-03   7.79455e+00   2.61717e+00 -1.39971e-01  -2.23466e-01  -2.72867e-01
Si    2.59778e+00   5.20844e+00   2.61778e+00 -1.19629e-01   2.54343e-01  -1.24627e-01
Si    1.28806e+00   6.50473e+00   1.27934e+00  2.74465e-01  -5.56642e-02   9.30086e-01
Si    3.89629e+00   9.12759e+00   1.31277e+00  1.44494e-01  -1.23093e+00  -2.70562e-01
Si    1.29206e+00   9.09247e+00   3.89900e+00  3.06591e-01   1.54097e-01   1.03692e-01
Si    3.91124e+00   6.51973e+00   3.91769e+00 -2.24602e-01  -6.11810e-01  -2.77123e-01
Si    5.18775e+00   5.20939e+00   1.48809e-03 -2.69945e-01  -8.47927e-02   5.29591e-01
Si    7.81785e+00   7.82722e+00   1.04027e+01 -5.15722e-01  -5.95169e-01  -1.11359e-01
Si    5.20432e+00   7.77581e+00   2.61349e+00  7.39651e-02   1.14422e+00   1.05185e-01
Si    7.78763e+00   5.23036e+00   2.62137e+00  9.70657e-02  -6.89931e-01   1.10284e-01
Si    6.49235e+00   6.49447e+00   1.32179e+00  2.91638e-01   4.00166e-01  -7.45674e-01
Si    9.11071e+00   9.08930e+00   1.31018e+00  1.80488e-01   4.09775e-01   5.35711e-02
Si    6.50984e+00   9.13376e+00   3.93086e+00 -3.21261e-01  -9.40739e-01  -4.70613e-01
Si    9.11812e+00   6.48527e+00   3.92011e+00 -1.83501e-01   4.05079e-01  -1.68083e-01
Si    1.55229e-02   2.12173e-02   5.19112e+00 -4.06975e-01  -5.76468e-01  -2.74899e-01
Si    2.62090e+00   2.58939e+00   5.19859e+00 -2.60557e-01   7.83677e-02   1.64064e-01
Si    1.03914e+01   2.60145e+00   7.81577e+00  4.69576e-02   1.18336e-01  -5.91041e-01
Si    2.61475e+00   1.04040e+01   7.79255e+00 -3.84937e-01  -2.15207e-01   1.87203e-01
Si    1.28408e+00   1.28269e+00   6.48685e+00  5.29128e-01   6.95091e-01   5.14418e-01
Si    3.92290e+00   3.91330e+00   6.48860e+00 -6.22964e-01  -1.90916e-01   3.09788e-01
Si    1.28071e+00   3.92608e+00   9.09548e+00  5.32346e-01  -3.98296e-01   3.40690e-01
Si    3.92959e+00   1.27416e+00   9.09642e+00 -1.64861e-01   5.28366e-01  -6.30102e-02
Si    5.22264e+00   7.38242e-04   5.21196e+00 -6.13717e-01  -1.40099e-01   1.48147e-01
Si    7.80665e+00   2.60284e+00   5.20583e+00 -7.67642e-02  -2.98704e-01  -1.45925e-01
Si    5.21324e+00   2.61699e+00   7.78252e+00  2.94221e-02  -3.28458e-01   3.77576e-01
Si    7.82111e+00   1.03963e+01   7.79422e+00 -2.77631e-01  -9.92370e-02  -2.43931e-01
Si    6.50647e+00   1.28438e+00   6.49518e+00  3.09360e-01   4.19156e-01   2.91899e-01
Si    9.08285e+00   3.92101e+00   6.49598e+00  4.41291e-01  -6.68392e-01   1.30062e-01
Si    6.47594e+00   3.92649e+00   9.12593e+00  4.55244e-01  -6.07475e-01  -2.17368e-01
Si    9.10684e+00   1.27680e+00   9.08488e+00 -1.27536e-01   3.02328e-01   7.98699e-01
Si    1.04022e+01   5.17715e+00   5.19325e+00  6.77522e-02   3.83820e-01   5.02465e-01
Si    2.60006e+00   7.78054e+00   5.19207e+00 -2.04298e-01   4.70098e-01   3.83259e-01
Si    4.48721e-03   7.81722e+00   7.79336e+00  6.22249e-02   1.33277e-02   8.64588e-02
Si    2.61417e+00   5.21700e+00   7.80814e+00 -4.70824e-01  -5.82299e-01  -5.38623e-01
Si    1.28726e+00   6.49742e+00   6.50524e+00  1.67794e-01  -1.16928e-01  -1.61416e-01
Si    3.90765e+00   9.08299e+00   6.50800e+00 -1.67675e-01   2.40313e-01  -5.08462e-01
Si    1.28271e+00   9.11751e+00   9.12399e+00  9.93829e-01  -6.46215e-01  -8.50098e-01
Si    3.88116e+00   6.47475e+00   9.09769e+00  4.61070e-01   8.07116e-01   2.22201e-01
Si    5.18845e+00   5.19560e+00   5.19833e+00  6.70730e-01   4.88323e-01   1.08082e-01
Si    7.82367e+00   7.82906e+00   5.19490e+00 -1.35364e-01  -4.82986e-01   1.37382e-01
Si    5.19361e+00   7.78681e+00   7.78112e+00  5.07614e-02  -9.83569e-02   6.62451e-01
Si    7.79423e+00   5.17915e+00   7.79442e+00  6.94509e-02   6.46103e-01   5.67374e-01
Si    6.52195e+00   6.51240e+00   6.50972e+00 -1.51866e-01  -2.36508e-01  -5.76954e-01
Si    9.12364e+00   9.10782e+00   6.48199e+00  8.95254e-02   2.63639e-01   1.54052e-01
Si    6.48869e+00   9.11418e+00   9.08106e+00  2.03941e-01  -3.36620e-01   1.90702e-01
Si    9.12585e+00   6.50878e+00   9.08953e+00 -4.69034e-01  -1.35261e-01   1.09788e-01
