8
Lattice="5.083416 0 0 0 5.083416 0 0 0 5.083416 " PBC="1 1 1" Properties=species:S:1:pos:R:3:force:R:3 Energy="-32.5711218427"
Si    0.00000e+00   0.00000e+00   0.00000e+00  1.33227e-15  -1.30104e-18  -1.51788e-18
Si    2.54171e+00   2.54171e+00   0.00000e+00  9.19403e-17   6.31765e-16  -4.44090e-16
Si    0.00000e+00   2.54171e+00   2.54171e+00 -4.44089e-16  -1.60462e-16   3.33501e-16
Si    2.54171e+00   0.00000e+00   2.54171e+00  1.76508e-16   0.00000e+00  -2.21936e-16
Si    1.27085e+00   1.27085e+00   1.27085e+00 -4.44089e-16   2.87530e-16   9.44123e-16
Si    3.81256e+00   3.81256e+00   1.27085e+00  1.40686e-15   2.22045e-16   2.22123e-16
Si    1.27085e+00   3.81256e+00   3.81256e+00 -8.15320e-17   8.89046e-16   6.66133e-16
Si    3.81256e+00   1.27085e+00   3.81256e+00  6.24500e-16  -9.20488e-17   4.44198e-16
