8
Lattice="5.854618 0 0 0 5.854618 0 0 0 5.854618 " PBC="1 1 1" Properties=species:S:1:pos:R:3:force:R:3 Energy="-32.2890474614"
Si    0.00000e+00   0.00000e+00   0.00000e+00 -1.33227e-15  -4.87432e-15  -5.09636e-15
Si    2.92731e+00   2.92731e+00   0.00000e+00 -4.10783e-15  -4.21885e-15  -4.55191e-15
Si    0.00000e+00   2.92731e+00   2.92731e+00 -1.99840e-15  -2.32675e-15  -1.96865e-15
Si    2.92731e+00   0.00000e+00   2.92731e+00 -2.22045e-15  -2.77556e-15  -1.88738e-15
Si    1.46365e+00   1.46365e+00   1.46365e+00 -2.22045e-16  -3.40252e-16  -1.31341e-16
Si    4.39096e+00   4.39096e+00   1.46365e+00  7.40156e-15   7.43378e-15   1.10427e-15
Si    1.46365e+00   4.39096e+00   4.39096e+00 -2.33147e-15   7.32747e-15   7.10543e-15
Si    4.39096e+00   1.46365e+00   4.39096e+00  5.62521e-15  -5.21659e-16   5.36376e-15
