64
Lattice="11.665788 0 0 0 11.665788 0 0 0 11.665788 " PBC="1 1 1" Properties=species:S:1:pos:R:3:force:R:3 Energy="-260.106103109"
Si    9.11472e-04   2.65339e-03   2.74657e-03 -9.54181e-03  -3.38516e-02  -5.52320e-02
Si    2.91410e+00   2.91493e+00   2.15025e-03  2.36278e-02   1.76690e-02  -3.02863e-02
Si    2.76788e-04   2.91773e+00   2.91893e+00  4.64483e-03  -1.77613e-02  -2.76340e-02
Si    2.91713e+00   9.73279e-04   2.91548e+00 -2.49799e-02  -2.87917e-02  -3.96965e-03
Si    1.45637e+00   1.45742e+00   1.45765e+00  1.47801e-02   2.36519e-02   4.13671e-02
Si    4.37620e+00   4.37331e+00   1.45686e+00 -1.72089e-02   1.69318e-03   8.54989e-03
Si    1.46100e+00   4.37212e+00   4.37420e+00 -2.80175e-02   5.21382e-02   1.87075e-02
Si    4.37380e+00   1.45583e+00   4.37291e+00  2.68606e-02   2.82993e-02   1.77600e-02
Si    5.83547e+00   1.16629e+01   1.16640e+01 -2.85292e-02   7.20432e-03   2.23129e-02
Si    8.75217e+00   2.91552e+00   1.16648e+01 -2.26560e-02   1.82026e-02   1.22937e-02
Si    5.83379e+00   2.91366e+00   2.91465e+00 -1.03020e-02   3.24400e-03   5.82010e-03
Si    8.75198e+00   1.46233e-03   2.91485e+00 -6.00275e-03  -5.16368e-03   2.13880e-02
Si    7.29192e+00   1.45549e+00   1.45771e+00  1.28821e-02   1.92497e-02  -2.10323e-02
Si    1.02102e+01   4.37620e+00   1.45800e+00 -2.02067e-02  -1.47903e-02   4.15792e-03
Si    7.29029e+00   4.37334e+00   4.37271e+00  2.17301e-03   6.34882e-03   1.03322e-03
Si    1.02084e+01   1.45939e+00   4.37615e+00 -1.61973e-02  -1.06902e-04  -1.72967e-02
Si    2.53081e-03   5.83358e+00   1.15814e-03 -2.50571e-02  -1.24625e-02  -4.29690e-02
Si    2.91474e+00   8.74650e+00   2.28306e-03 -2.43982e-03   3.03380e-02  -3.79393e-02
Si    2.02510e-03   8.75121e+00   2.91821e+00 -1.70553e-02  -1.60559e-02  -3.13130e-02
Si    2.91628e+00   5.83236e+00   2.91485e+00  9.70098e-03  -7.86012e-03   1.57372e-03
Si    1.45709e+00   7.28981e+00   1.45606e+00  8.33523e-03   1.61602e-02   5.31857e-02
Si    4.37330e+00   1.02049e+01   1.45796e+00  1.06105e-02   2.73576e-02  -9.85457e-03
Si    1.45783e+00   1.02081e+01   4.37530e+00  1.86899e-02   1.13141e-02  -1.40293e-02
Si    4.37459e+00   7.28933e+00   4.37546e+00 -2.00486e-02   2.23683e-02  -6.67376e-03
Si    5.83204e+00   5.83318e+00   1.16644e+01  4.08231e-02  -3.74716e-03   1.67750e-02
Si    8.74995e+00   8.74746e+00   2.78047e-03  7.56357e-03   3.15856e-02  -2.32142e-02
Si    5.83056e+00   8.74921e+00   2.91626e+00  3.02540e-02  -1.08642e-02   9.20494e-03
Si    8.74648e+00   5.83284e+00   2.91373e+00  4.84993e-02  -3.94703e-03   3.79783e-02
Si    7.29300e+00   7.29105e+00   1.46013e+00 -5.64691e-02   8.49736e-04  -2.86927e-02
Si    1.02095e+01   1.02101e+01   1.45846e+00 -2.54674e-03  -2.86423e-02   4.81568e-03
Si    7.29347e+00   1.02077e+01   4.37206e+00 -1.65697e-02   1.22727e-03   1.97823e-02
Si    1.02065e+01   7.29357e+00   4.37400e+00  8.11153e-04  -3.20566e-02   5.11866e-03
Si    1.16630e+01   1.16631e+01   5.83020e+00  2.69995e-02   2.53877e-02   4.49909e-02
Si    2.91894e+00   2.91833e+00   5.83191e+00 -1.66439e-02  -4.18620e-02   2.12679e-02
Si    1.16656e+01   2.91659e+00   8.74752e+00  1.72979e-02   7.89907e-03   2.58256e-02
Si    2.91902e+00   1.22403e-03   8.75021e+00 -3.65003e-02  -9.69493e-03   3.20996e-03
Si    1.45692e+00   1.45755e+00   7.29187e+00  2.03100e-02  -1.88619e-03  -3.78207e-02
Si    4.37462e+00   4.37751e+00   7.29086e+00  2.21264e-03  -2.70938e-02   2.58728e-03
Si    1.46079e+00   4.37663e+00   1.02053e+01 -3.60985e-02  -4.32376e-02   3.84485e-02
Si    4.37609e+00   1.45893e+00   1.02093e+01 -9.67074e-03  -6.10159e-03   3.45000e-03
Si    5.83511e+00   9.31603e-04   5.83287e+00 -1.77017e-02  -1.40132e-02  -1.09510e-02
Si    8.75028e+00   2.91925e+00   5.83252e+00 -1.89152e-02  -2.87100e-02   2.00143e-02
Si    5.83071e+00   2.91765e+00   8.74939e+00  1.37527e-02   1.11907e-02   5.40724e-03
Si    8.74786e+00   1.16654e+01   8.75120e+00  3.31167e-02   8.60043e-03  -2.85880e-02
Si    7.28895e+00   1.45966e+00   7.29384e+00  3.34116e-02   5.66705e-03  -2.68524e-02
Si    1.02094e+01   4.37486e+00   7.29151e+00 -1.48971e-02   8.31317e-03  -5.96581e-03
Si    7.29336e+00   4.37547e+00   1.02048e+01 -1.47058e-02  -1.02066e-02   2.78611e-02
Si    1.02087e+01   1.45901e+00   1.02073e+01  1.73336e-03  -1.43321e-02  -2.16029e-03
Si    1.16656e+01   5.83399e+00   5.83498e+00  7.56108e-03  -1.36896e-02  -4.63573e-02
Si    2.91526e+00   8.75144e+00   5.83353e+00  3.00845e-04  -3.43606e-02  -2.63690e-03
Si    2.70858e-03   8.75041e+00   8.74895e+00 -6.26576e-02  -3.42860e-02   1.52845e-02
Si    2.91741e+00   5.83071e+00   8.75185e+00  1.96567e-04   6.39272e-02  -3.34136e-02
Si    1.45544e+00   7.29178e+00   7.29260e+00  5.76515e-02  -1.24925e-02   2.77707e-04
Si    4.37317e+00   1.02090e+01   7.29015e+00  3.14040e-02  -6.02953e-03   6.69294e-03
Si    1.45596e+00   1.02058e+01   1.02056e+01  4.53429e-02   3.77885e-02   4.75515e-02
Si    4.37519e+00   7.29220e+00   1.02100e+01 -1.57432e-02  -1.49623e-02  -2.51722e-02
Si    5.83245e+00   5.83133e+00   5.83143e+00  4.97224e-03   1.88551e-03  -1.93311e-03
Si    8.74821e+00   8.74849e+00   5.83477e+00 -6.04667e-04   4.24696e-03  -2.39041e-02
Si    5.83221e+00   8.74750e+00   8.74764e+00  2.40406e-03   2.58693e-02   1.11480e-02
Si    8.75219e+00   5.83331e+00   8.74936e+00 -3.19393e-02  -5.72102e-03  -2.69188e-02
Si    7.28905e+00   7.28876e+00   7.28941e+00  2.27058e-02   1.46702e-03   1.82963e-02
Si    1.02081e+01   1.02048e+01   7.29150e+00 -2.00366e-02   2.83064e-02   7.53823e-03
Si    7.29305e+00   1.02074e+01   1.02064e+01 -1.45787e-02  -4.44528e-02   1.11336e-02
Si    1.02057e+01   7.28949e+00   1.02076e+01  5.28919e-02   2.97830e-02   1.00008e-02
