64
Lattice="10.818552 0 0 0 10.818552 0 0 0 10.818552 " PBC="1 1 1" Properties=species:S:1:pos:R:3:force:R:3 Energy="-277.479788495"
Si    1.08159e+01   2.11813e-03   1.08174e+01  4.15651e-02  -3.71172e-02   2.33009e-02
Si    2.70355e+00   2.70622e+00   1.08176e+01  7.00731e-03  -2.46665e-02   1.81421e-02
Si    1.97282e-03   2.70435e+00   2.70490e+00 -5.49088e-02  -3.11093e-02   1.01774e-02
Si    2.70387e+00   1.08165e+01   2.70270e+00 -2.38087e-03  -2.01195e-02  -3.44443e-03
Si    1.35202e+00   1.35357e+00   1.35210e+00  4.96692e-03  -2.50550e-02  -1.77877e-02
Si    4.05746e+00   4.05607e+00   1.35207e+00 -2.25840e-02   2.76526e-02  -9.63120e-03
Si    1.35063e+00   4.05646e+00   4.05497e+00  3.74185e-02   3.95000e-02   3.04304e-02
Si    4.05445e+00   1.35006e+00   4.05541e+00  3.29065e-02   4.78955e-02   3.07265e-03
Si    5.40952e+00   8.38797e-04   4.80278e-04 -7.37379e-03  -1.39824e-02  -7.65955e-03
Si    8.11432e+00   2.70374e+00   1.08179e+01  7.67689e-03   2.02984e-02   3.38583e-03
Si    5.40874e+00   2.70561e+00   2.70272e+00  3.09939e-03  -1.71227e-02   5.43206e-02
Si    8.11548e+00   1.08160e+01   2.70525e+00 -7.10217e-02   1.35665e-02  -1.86283e-02
Si    6.75971e+00   1.35379e+00   1.35104e+00  5.64048e-02  -3.88229e-02   3.70284e-02
Si    9.46770e+00   4.05581e+00   1.35314e+00 -1.24909e-02   2.82733e-02  -2.11197e-02
Si    6.76403e+00   4.05922e+00   4.05514e+00 -6.14377e-02  -4.49698e-02   3.78341e-02
Si    9.46536e+00   1.35010e+00   4.05800e+00 -6.98596e-05   7.14710e-02  -9.47882e-03
Si    9.73208e-04   5.41149e+00   1.08175e+01 -8.66909e-03  -4.85309e-02  -7.36435e-04
Si    2.70292e+00   8.11140e+00   1.08178e+01  3.51052e-02   5.74426e-02  -1.29178e-02
Si    2.50367e-03   8.11434e+00   2.70675e+00 -1.89462e-02  -3.89981e-02  -6.71036e-02
Si    2.70473e+00   5.41051e+00   2.70400e+00  1.27317e-02  -2.99758e-02   5.59608e-03
Si    1.35498e+00   6.76101e+00   1.35039e+00 -5.07461e-02   1.26495e-02   4.52612e-02
Si    4.05916e+00   9.46386e+00   1.35011e+00 -5.80956e-02   2.67683e-02   3.06476e-03
Si    1.35214e+00   9.46353e+00   4.05798e+00 -1.17788e-02   8.60004e-02   1.02374e-02
Si    4.05631e+00   6.76274e+00   4.05753e+00 -4.68747e-03  -2.43889e-02   3.15709e-02
Si    5.41158e+00   5.40700e+00   6.30212e-04 -5.38738e-02   5.27734e-02  -4.95023e-03
Si    8.11445e+00   8.11312e+00   1.08177e+01 -3.36446e-02  -9.57356e-03   4.59179e-03
Si    5.40666e+00   8.11570e+00   2.70596e+00  3.21261e-02  -4.97603e-02  -1.34330e-02
Si    8.11310e+00   5.40919e+00   2.70504e+00  5.16233e-02   4.70026e-03  -2.46656e-02
Si    6.76040e+00   6.76040e+00   1.35494e+00  8.04031e-03   3.81318e-02  -2.74292e-02
Si    9.46594e+00   9.46389e+00   1.35157e+00  2.89008e-02   1.87945e-02   1.22740e-02
Si    6.75911e+00   9.46366e+00   4.05857e+00  3.25085e-02   5.90949e-02  -1.18873e-02
Si    9.46789e+00   6.76034e+00   4.05556e+00 -1.79094e-02   2.54471e-02   1.52887e-03
Si    1.08172e+01   2.64079e-03   5.41044e+00  2.80190e-02  -7.15862e-02  -1.12154e-02
Si    2.70522e+00   2.70696e+00   5.40870e+00 -1.90042e-02  -4.04957e-02  -6.83890e-03
Si    1.08169e+01   2.70599e+00   8.11365e+00  2.94953e-02  -2.88534e-02  -4.94885e-02
Si    2.70255e+00   1.08160e+01   8.11272e+00  4.25690e-02   2.08578e-02   2.77004e-02
Si    1.35407e+00   1.35099e+00   6.76125e+00 -3.24114e-02   5.95938e-02   7.41222e-03
Si    4.05555e+00   4.05649e+00   6.76385e+00  2.88531e-02  -5.04136e-03  -1.46255e-02
Si    1.35113e+00   4.05455e+00   9.46453e+00  1.12874e-02   6.71512e-02   1.19511e-02
Si    4.05494e+00   1.35046e+00   9.46859e+00  2.18024e-02   3.04499e-02  -6.73563e-02
Si    5.40960e+00   2.67479e-03   5.41049e+00  4.45699e-03  -2.00773e-02  -4.14752e-02
Si    8.11305e+00   2.70697e+00   5.41144e+00  2.25853e-02  -3.37757e-02  -5.68706e-02
Si    5.41182e+00   2.70496e+00   8.11315e+00 -4.95587e-02  -4.10476e-02   3.77971e-02
Si    8.11349e+00   1.08164e+01   8.11572e+00  3.35242e-02   4.56850e-02  -3.23447e-02
Si    6.76383e+00   1.35135e+00   6.76110e+00 -9.26039e-03   1.73977e-02   3.07226e-02
Si    9.46531e+00   4.05861e+00   6.76078e+00  1.75232e-02   1.73012e-02   5.70639e-03
Si    6.76142e+00   4.05774e+00   9.46702e+00  3.40558e-02  -1.87028e-02  -2.47125e-02
Si    9.46815e+00   1.35356e+00   9.46506e+00 -5.68071e-02  -1.33034e-02  -5.38282e-03
Si    6.41225e-04   5.41161e+00   5.40839e+00  3.03195e-03  -3.43798e-02   1.57020e-02
Si    2.70213e+00   8.11468e+00   5.41027e+00  6.41540e-02   6.10114e-04   7.44239e-03
Si    2.12878e-04   8.11503e+00   8.11329e+00 -1.32927e-02   8.25900e-03  -1.14152e-02
Si    2.70565e+00   5.40985e+00   8.11419e+00 -3.33077e-02   1.24340e-02   1.27410e-02
Si    1.35163e+00   6.76410e+00   6.76238e+00  1.30825e-02  -4.08907e-02   2.46043e-03
Si    4.05916e+00   9.46869e+00   6.76018e+00 -2.61189e-02  -5.19025e-02   2.52867e-02
Si    1.35084e+00   9.46549e+00   9.46560e+00 -2.81131e-03   1.25503e-02   2.72250e-02
Si    4.05768e+00   6.76416e+00   9.46608e+00  2.10312e-02  -6.34026e-02   1.67818e-02
Si    5.40881e+00   5.40683e+00   5.41183e+00  3.73914e-03   4.46155e-02  -3.31250e-02
Si    8.11650e+00   8.11475e+00   5.40736e+00 -4.64746e-02  -5.32014e-02   2.23653e-02
Si    5.41141e+00   8.11386e+00   8.11457e+00 -3.27084e-02   4.87250e-02  -1.06482e-02
Si    8.11176e+00   5.41051e+00   8.11189e+00  3.98927e-02  -4.98153e-03   4.75295e-02
Si    6.76113e+00   6.76261e+00   6.76331e+00  1.57359e-02   5.56472e-03  -6.77661e-02
Si    9.46478e+00   9.46535e+00   6.76098e+00  2.74294e-02   3.06182e-02   1.26173e-02
Si    6.76158e+00   9.46882e+00   9.46593e+00 -1.55206e-03  -5.00667e-02   3.51583e-02
Si    9.46825e+00   6.76319e+00   9.46396e+00 -4.04238e-02  -2.63717e-02   5.72109e-03
