64
Lattice="10.253728 0 0 0 10.253728 0 0 0 10.253728 " PBC="1 1 1" Properties=species:S:1:pos:R:3:force:R:3 Energy="-264.209855924"
Si    2.37097e-02   1.02354e+01   1.31151e-04 -5.46913e-01   9.23514e-01   4.51849e-01
Si    2.57046e+00   2.58221e+00   1.02472e+01  5.66480e-03  -5.73397e-01  -1.82785e-01
Si    7.06496e-03   2.55643e+00   2.59356e+00 -1.30112e-01   1.00824e-01  -6.74023e-01
Si    2.55628e+00   3.88026e-03   2.56338e+00  2.67930e-01  -7.13127e-02   1.19784e-01
Si    1.30799e+00   1.30256e+00   1.29890e+00 -4.78790e-01  -1.95262e-01  -4.39900e-01
Si    3.84166e+00   3.82511e+00   1.27707e+00  2.13242e-01   4.00994e-01   7.69050e-02
Si    1.28575e+00   3.82820e+00   3.83345e+00  2.26909e-01   8.35220e-01  -2.33130e-01
Si    3.82287e+00   1.28845e+00   3.85991e+00  3.79748e-01  -1.99287e-01  -8.13219e-02
Si    5.10408e+00   2.35045e-02   1.02528e+01  4.28162e-01  -7.73573e-01   6.20604e-01
Si    7.66407e+00   2.54268e+00   1.91602e-02  9.15150e-01   5.51366e-01   8.74377e-02
Si    5.11776e+00   2.55379e+00   2.56411e+00  4.24987e-01   9.21772e-02   3.11028e-01
Si    7.67219e+00   9.07622e-03   2.54720e+00  4.39361e-01  -3.19598e-01   7.17343e-01
Si    6.42895e+00   1.26762e+00   1.29045e+00 -1.08654e+00   2.45556e-01  -1.18717e-01
Si    8.98894e+00   3.86009e+00   1.29447e+00 -3.70651e-01  -5.43680e-01  -1.75591e-01
Si    6.41285e+00   3.86175e+00   3.86956e+00 -5.07318e-01  -1.03573e+00   4.31433e-02
Si    8.97722e+00   1.27996e+00   3.84336e+00 -3.21871e-01  -3.51502e-01   2.86262e-01
Si    1.02494e+01   5.12966e+00   1.02256e+01 -8.83655e-02   3.76240e-01   8.65722e-01
Si    2.57357e+00   7.70574e+00   1.02432e+01 -3.34874e-01  -6.18256e-01   2.79443e-01
Si    1.50339e-02   7.71437e+00   2.56992e+00 -1.09294e+00  -3.90330e-01  -1.00676e-01
Si    2.57722e+00   5.14047e+00   2.54032e+00 -5.57654e-01  -3.83848e-01   1.24404e-01
Si    1.25400e+00   6.42225e+00   1.29108e+00  5.65666e-01  -7.88138e-02  -6.30670e-01
Si    3.83602e+00   8.95590e+00   1.29609e+00  3.17559e-01   5.24204e-01  -1.39889e-01
Si    1.27029e+00   8.98047e+00   3.82724e+00  5.88109e-01  -1.84609e-01   8.26814e-01
Si    3.81724e+00   6.42390e+00   3.83359e+00  8.30037e-01  -3.19886e-01   2.75073e-02
Si    5.11698e+00   5.11585e+00   1.02518e+01  4.74581e-01  -1.18814e-01   1.65035e-01
Si    7.70287e+00   7.70376e+00   1.02235e+01 -3.61603e-01  -6.93535e-01   9.33483e-01
Si    5.14295e+00   7.70480e+00   2.58181e+00 -2.38161e-01  -4.60283e-01  -2.81675e-01
Si    7.66517e+00   5.09562e+00   2.58616e+00  8.36703e-01   4.24508e-01  -1.82177e-01
Si    6.42357e+00   6.38129e+00   1.30472e+00 -1.65113e-01   6.42532e-01  -6.15114e-01
Si    8.94938e+00   8.98097e+00   1.27707e+00  4.90587e-01  -8.16197e-02   3.40966e-02
Si    6.39292e+00   8.98750e+00   3.85585e+00  4.28884e-01   1.07198e-01  -9.53729e-02
Si    8.96266e+00   6.39606e+00   3.85234e+00  4.17344e-01   9.29111e-02  -5.60191e-01
Si    1.02474e+01   1.02338e+01   5.14036e+00  1.77272e-01   5.14755e-01  -2.07089e-01
Si    2.54805e+00   2.58557e+00   5.11071e+00  4.71856e-01  -1.13928e-01   5.95777e-01
Si    1.02493e+01   2.56622e+00   7.68839e+00  5.01225e-01  -4.08256e-03   2.39226e-01
Si    2.53642e+00   1.38381e-03   7.66532e+00  3.64311e-01  -4.38271e-01   6.99770e-01
Si    1.30055e+00   1.28364e+00   6.40371e+00 -7.13873e-01   2.91601e-01  -2.81086e-01
Si    3.85882e+00   3.86777e+00   6.40146e+00 -6.61271e-01  -3.76118e-01   2.32952e-02
Si    1.27588e+00   3.86520e+00   8.99613e+00  1.25405e-01  -5.29005e-01  -7.16074e-01
Si    3.85085e+00   1.25521e+00   8.96593e+00 -6.89039e-01   7.44832e-01  -3.89133e-01
Si    5.13938e+00   1.32395e-02   5.14624e+00 -5.86478e-01  -3.36982e-02  -2.30067e-02
Si    7.68235e+00   2.53747e+00   5.15286e+00  2.20665e-01   4.17828e-01  -4.85725e-01
Si    5.10886e+00   2.57780e+00   7.68577e+00  2.45252e-01  -3.37000e-01   1.60777e-01
Si    7.70773e+00   1.31630e-02   7.70082e+00 -8.67933e-01  -2.75894e-01   5.84181e-01
Si    6.41260e+00   1.28485e+00   6.43101e+00 -2.17326e-01  -5.99003e-02   2.07773e-01
Si    8.98066e+00   3.82961e+00   6.40661e+00 -6.06958e-04   2.94012e-01  -2.78355e-01
Si    6.42080e+00   3.81995e+00   8.97569e+00 -4.93850e-01   2.73099e-01   7.00834e-02
Si    8.96734e+00   1.29965e+00   8.97794e+00  3.82456e-01  -3.46641e-01   3.32799e-01
Si    2.23979e-02   5.12416e+00   5.11138e+00 -4.23771e-01  -2.42214e-01   2.52335e-01
Si    2.57375e+00   7.66620e+00   5.13261e+00 -9.63220e-01   4.82870e-01  -1.64763e-01
Si    1.02408e+01   7.69927e+00   7.67815e+00 -8.80210e-03   2.76616e-01   1.04948e-01
Si    2.56649e+00   5.12225e+00   7.70276e+00 -1.09205e-01   2.00932e-01  -1.45512e-01
Si    1.25984e+00   6.40504e+00   6.42415e+00  5.21681e-01  -6.16958e-02  -1.61405e-01
Si    3.82521e+00   8.96151e+00   6.40095e+00  4.45450e-01   2.82433e-01   1.34021e-01
Si    1.26297e+00   8.96566e+00   8.98766e+00  4.65684e-01  -4.22440e-02  -7.88976e-01
Si    3.85847e+00   6.40376e+00   8.97289e+00 -9.99903e-02   3.01763e-01  -1.31434e-01
Si    5.11253e+00   5.12793e+00   5.12426e+00  1.26307e-01   6.33183e-01  -2.17222e-01
Si    7.69321e+00   7.68655e+00   5.09967e+00 -9.63813e-02   3.45294e-01   5.63908e-01
Si    5.13861e+00   7.71352e+00   7.69775e+00 -2.37531e-01  -7.41979e-01  -4.94616e-01
Si    7.68645e+00   5.10067e+00   7.68767e+00  4.69843e-01   4.31055e-01   2.19824e-01
Si    6.42734e+00   6.39831e+00   6.39830e+00 -3.84881e-01   2.62336e-01   1.65378e-01
Si    8.94725e+00   8.99836e+00   6.41807e+00  1.43431e-01  -7.39879e-01  -3.26460e-01
Si    6.38349e+00   8.95185e+00   8.99948e+00  4.78499e-01   1.13985e+00  -4.49888e-01
Si    8.99081e+00   6.42690e+00   8.97061e+00 -5.54893e-01  -4.73814e-01  -5.52981e-01
