64
Lattice="11.709236 0 0 0 11.709236 0 0 0 11.709236 " PBC="1 1 1" Properties=species:S:1:pos:R:3:force:R:3 Energy="-258.275375421"
Si    1.17062e+01   1.17029e+01   1.17087e+01  5.42863e-02  -8.37938e-02   3.93038e-02
Si    2.93138e+00   2.92579e+00   1.17067e+01 -6.15014e-02  -6.93314e-02  -2.08952e-02
Si    4.87407e-03   2.92054e+00   2.91633e+00  2.23210e-02  -3.18227e-02   1.45971e-01
Si    2.91838e+00   1.17037e+01   2.92851e+00  1.70389e-01   1.53285e-01  -3.69144e-02
Si    1.46315e+00   1.45790e+00   1.45350e+00  3.02199e-02  -5.61371e-04   3.96404e-02
Si    4.38473e+00   4.38520e+00   1.45475e+00  7.52128e-02   1.21607e-01   9.87725e-02
Si    1.46715e+00   4.38687e+00   4.39191e+00 -8.23908e-02   1.95925e-02  -1.47112e-02
Si    4.39471e+00   1.47073e+00   4.39603e+00 -6.41485e-02  -9.95930e-02  -7.36148e-02
Si    5.85468e+00   1.17086e+01   1.17017e+01  1.07700e-02  -7.36579e-02   1.49522e-01
Si    8.78794e+00   2.93043e+00   4.28025e-03 -2.21029e-02  -1.19948e-01   3.89107e-02
Si    5.85616e+00   2.92405e+00   2.91913e+00 -5.03990e-02   7.93775e-02   8.44141e-02
Si    8.77439e+00   1.17031e+01   2.92013e+00  5.26798e-02   5.98375e-03   9.92418e-02
Si    7.31029e+00   1.45794e+00   1.46583e+00  9.90582e-02   4.86934e-02  -1.11652e-01
Si    1.02556e+01   4.38176e+00   1.46745e+00 -8.06177e-02   9.80993e-02  -1.38915e-02
Si    7.31479e+00   4.39712e+00   4.39101e+00  3.83996e-02  -1.46578e-01  -1.54483e-02
Si    1.02480e+01   1.45448e+00   4.38885e+00 -1.36256e-01   1.37726e-01  -2.53455e-02
Si    1.55202e-03   5.84931e+00   1.57418e-04 -1.05229e-02   6.79796e-03   3.98162e-02
Si    2.92859e+00   8.77211e+00   1.17032e+01 -5.86381e-03   9.27712e-02   1.36846e-01
Si    1.17083e+01   8.77970e+00   2.91807e+00  5.88913e-02  -4.52727e-03   1.07513e-01
Si    2.91843e+00   5.85458e+00   2.93075e+00  1.32553e-01  -6.06804e-02  -4.21591e-02
Si    1.46541e+00   7.31022e+00   1.46788e+00 -3.69919e-02   5.38287e-02  -1.01280e-01
Si    4.39319e+00   1.02444e+01   1.47034e+00 -1.56641e-02  -3.87119e-02  -9.64783e-02
Si    1.46763e+00   1.02516e+01   4.38091e+00 -1.45217e-01  -1.22226e-01   1.75135e-01
Si    4.38526e+00   7.32521e+00   4.38730e+00  1.03488e-01  -1.31604e-01   3.65961e-02
Si    5.86030e+00   5.86217e+00   1.24480e-03 -1.04566e-01  -8.27927e-02  -6.17694e-02
Si    8.78613e+00   8.78087e+00   7.45819e-03 -3.94253e-02  -2.25072e-02  -6.75231e-02
Si    5.86453e+00   8.78148e+00   2.93172e+00 -8.30930e-02  -1.58264e-02  -5.92374e-02
Si    8.78639e+00   5.84735e+00   2.93596e+00  7.86618e-03   6.39077e-02  -1.28981e-01
Si    7.32107e+00   7.31644e+00   1.45787e+00  5.87961e-02  -5.15039e-03   1.59564e-01
Si    1.02417e+01   1.02360e+01   1.46826e+00  3.41433e-02   9.92192e-02  -6.12399e-02
Si    7.31774e+00   1.02432e+01   4.39468e+00  8.52092e-02  -2.26403e-02   3.69114e-02
Si    1.02525e+01   7.31656e+00   4.39041e+00 -5.16230e-02   3.08420e-02  -5.20730e-03
Si    1.16984e+01   4.77987e-03   5.85770e+00  1.22936e-01  -1.48476e-01  -5.79371e-02
Si    2.92869e+00   2.93166e+00   5.85873e+00 -6.54116e-02  -9.85945e-02  -4.65156e-02
Si    1.17049e+01   2.91899e+00   8.77809e+00  4.58726e-02   5.32324e-02   9.48649e-02
Si    2.92182e+00   1.67430e-03   8.78431e+00  3.99040e-02  -1.83398e-02  -2.66401e-02
Si    1.45451e+00   1.46279e+00   7.31472e+00  8.89623e-02   9.68563e-03   2.23110e-02
Si    4.38627e+00   4.38408e+00   7.31256e+00  7.05537e-02   1.22219e-01   5.71928e-02
Si    1.46114e+00   4.38522e+00   1.02495e+01  3.40523e-02   3.11676e-02  -1.25912e-01
Si    4.39384e+00   1.45390e+00   1.02532e+01 -4.34074e-02   1.14462e-01  -1.44259e-01
Si    5.85854e+00   1.17089e+01   5.85583e+00 -5.88393e-02  -2.87017e-03   1.80104e-02
Si    8.77476e+00   2.92995e+00   5.86379e+00  5.08556e-02  -8.07672e-02  -1.12925e-01
Si    5.85260e+00   2.92365e+00   8.77603e+00  7.07320e-03   5.34140e-02   1.79867e-01
Si    8.78982e+00   1.17079e+01   8.77570e+00 -4.58855e-02   2.07751e-03   1.45446e-01
Si    7.31053e+00   1.46014e+00   7.32604e+00  1.04339e-01   5.89032e-03  -7.47279e-02
Si    1.02493e+01   4.38668e+00   7.31901e+00 -6.23547e-03   7.17657e-02  -5.43650e-02
Si    7.32950e+00   4.39326e+00   1.02540e+01 -1.05059e-01  -1.37027e-02  -1.49281e-01
Si    1.02551e+01   1.45795e+00   1.02559e+01 -1.23856e-01   3.68480e-02  -1.19720e-01
Si    3.24494e-03   5.86283e+00   5.85195e+00  2.57774e-02  -1.18473e-01   6.19080e-02
Si    2.92652e+00   8.77306e+00   5.85608e+00 -1.79151e-03   1.93755e-01  -1.44308e-02
Si    5.55752e-03   8.77704e+00   8.77768e+00 -7.19325e-02   1.28370e-02   1.36593e-01
Si    2.92275e+00   5.86032e+00   8.77331e+00  2.81742e-02  -1.19270e-01   1.05748e-01
Si    1.46484e+00   7.32370e+00   7.32317e+00 -2.46856e-02  -6.65103e-02  -1.07531e-01
Si    4.39370e+00   1.02462e+01   7.32377e+00 -7.44198e-02  -1.82816e-02  -6.95484e-02
Si    1.46759e+00   1.02396e+01   1.02444e+01 -5.56652e-02   1.56615e-02   8.28709e-03
Si    4.38623e+00   7.32296e+00   1.02409e+01  4.46819e-02  -1.31823e-01   1.72524e-02
Si    5.86035e+00   5.85005e+00   5.85168e+00 -1.34130e-01   1.14485e-01   4.66299e-02
Si    8.78809e+00   8.77329e+00   5.86363e+00 -5.79274e-02   5.37755e-02  -6.92408e-02
Si    5.84661e+00   8.77472e+00   8.78167e+00  1.22676e-01   1.40211e-01   8.10663e-02
Si    8.78447e+00   5.85604e+00   8.77170e+00  1.47695e-02  -3.84497e-02   1.59043e-01
Si    7.31605e+00   7.31931e+00   7.32819e+00 -4.74213e-03  -5.01714e-02  -1.26848e-01
Si    1.02485e+01   1.02380e+01   7.32400e+00  8.50306e-03   3.78138e-02  -6.18729e-02
Si    7.32500e+00   1.02459e+01   1.02523e+01 -4.27928e-02  -5.77453e-02  -1.29673e-01
Si    1.02426e+01   7.31512e+00   1.02521e+01  6.37506e-02   1.43964e-02  -9.46022e-02
