8
Lattice="5.257208 0 0 0 5.257208 0 0 0 5.257208 " PBC="1 1 1" Properties=species:S:1:pos:R:3:force:R:3 Energy="-34.1954632759"
Si    0.00000e+00   0.00000e+00   0.00000e+00 -7.66054e-15  -7.81105e-15  -7.81105e-15
Si    2.62860e+00   2.62860e+00   0.00000e+00 -1.02836e-15  -7.24293e-15  -7.54952e-15
Si    0.00000e+00   2.62860e+00   2.62860e+00 -4.44089e-15  -4.01691e-15  -4.05489e-15
Si    2.62860e+00   0.00000e+00   2.62860e+00 -1.01600e-15  -7.49401e-15  -7.32747e-15
Si    1.31430e+00   1.31430e+00   1.31430e+00 -3.33067e-16  -3.23008e-16  -4.63894e-16
Si    3.94291e+00   3.94291e+00   1.31430e+00  9.35286e-15   1.57123e-14  -1.29179e-15
Si    1.31430e+00   3.94291e+00   3.94291e+00 -4.64345e-15   1.25455e-14   1.26565e-14
Si    3.94291e+00   1.31430e+00   3.94291e+00  9.29035e-15  -1.22942e-15   1.58010e-14
