64
Lattice="11.209584 0 0 0 11.209584 0 0 0 11.209584 " PBC="1 1 1" Properties=species:S:1:pos:R:3:force:R:3 Energy="-273.630126349"
Si    1.12050e+01   1.11853e+01   1.11912e+01 -3.05445e-01   5.99181e-01   2.37357e-01
Si    2.81123e+00   2.81874e+00   1.11890e+01 -1.33111e-01  -1.12879e-01   8.90656e-04
Si    2.41940e-02   2.80399e+00   2.80382e+00 -2.51415e-01   4.78140e-02  -3.46107e-01
Si    2.80478e+00   9.68889e-04   2.82240e+00  5.81387e-02  -7.75038e-02  -5.44558e-01
Si    1.40369e+00   1.39069e+00   1.37837e+00  1.04780e-01   6.97817e-02   1.18072e-01
Si    4.21990e+00   4.21481e+00   1.39506e+00 -1.50543e-01  -2.31021e-01   3.54436e-01
Si    1.39196e+00   4.22458e+00   4.19347e+00  4.84679e-01  -3.12485e-01   1.53485e-01
Si    4.18358e+00   1.37090e+00   4.22842e+00  4.25039e-01   3.61192e-01  -8.80886e-02
Si    5.61228e+00   1.11928e+01   1.80535e-02 -1.83201e-01   4.58299e-01  -2.64777e-01
Si    8.40410e+00   2.79972e+00   1.11895e+01  5.89888e-02  -3.02345e-02   4.60298e-01
Si    5.61085e+00   2.79921e+00   2.83559e+00 -3.43532e-01  -1.56234e-01  -3.24314e-01
Si    8.39199e+00   1.12076e+01   2.82167e+00  4.03131e-01  -6.91545e-02  -4.72525e-01
Si    7.00979e+00   1.39878e+00   1.42265e+00 -4.24685e-02   9.62840e-02  -1.87000e-01
Si    9.80243e+00   4.22520e+00   1.40395e+00  1.19164e-01  -4.98633e-01  -8.24856e-02
Si    7.00369e+00   4.21359e+00   4.18133e+00  1.05579e-01  -2.43041e-01   6.48896e-01
Si    9.82564e+00   1.38872e+00   4.17710e+00 -2.16511e-01   2.95653e-01   1.66788e-01
Si    1.11989e+01   5.62278e+00   1.26419e-02 -1.60914e-02  -7.81880e-02  -1.89297e-01
Si    2.80426e+00   8.43661e+00   1.11929e+01 -1.74513e-01  -2.04902e-01   5.32288e-01
Si    1.69070e-02   8.40921e+00   2.79566e+00 -2.39699e-01  -5.60453e-02   1.00066e-01
Si    2.82941e+00   5.62535e+00   2.82641e+00 -3.69245e-01  -3.67223e-01  -5.66919e-01
Si    1.40342e+00   7.00292e+00   1.40601e+00  3.12627e-01   1.92986e-01  -9.80696e-02
Si    4.21882e+00   9.80426e+00   1.39863e+00 -3.83964e-01   1.23894e-01   9.36790e-02
Si    1.42393e+00   9.81177e+00   4.19384e+00 -4.13348e-01   3.43193e-02   2.60713e-01
Si    4.21954e+00   6.99425e+00   4.17266e+00  8.61770e-02   1.93128e-01   6.65578e-01
Si    5.61433e+00   5.59481e+00   1.42641e-02 -2.18697e-01   2.70360e-01  -2.65090e-01
Si    8.41135e+00   8.41305e+00   1.11845e+01 -6.13327e-01   5.78436e-02   3.52912e-01
Si    5.58553e+00   8.38877e+00   2.77257e+00  4.92135e-01   2.57028e-01   3.22809e-01
Si    8.40349e+00   5.58574e+00   2.80471e+00  1.16636e-01   4.36437e-01   1.89459e-02
Si    7.00256e+00   6.99285e+00   1.40374e+00  2.78264e-01   1.52287e-01  -1.61440e-01
Si    9.79896e+00   9.79763e+00   1.37884e+00  2.39968e-02   1.20953e-01   3.68103e-01
Si    7.01184e+00   9.81915e+00   4.19211e+00 -6.13352e-01  -1.66097e-01   7.99993e-02
Si    9.83062e+00   6.98000e+00   4.21938e+00 -4.36253e-01   5.21521e-01  -4.22016e-01
Si    1.11875e+01   1.88574e-02   5.59695e+00  4.92978e-01  -3.40581e-01  -6.94580e-02
Si    2.81532e+00   2.79387e+00   5.60641e+00 -3.61405e-01   2.79385e-01  -1.54251e-01
Si    5.58744e-03   2.81943e+00   8.41172e+00 -2.88971e-01  -2.21322e-01  -2.34926e-01
Si    2.78810e+00   1.11848e+01   8.41709e+00 -2.16470e-01   4.85329e-01  -3.11571e-01
Si    1.38948e+00   1.42028e+00   6.99108e+00  1.14538e-01  -2.85867e-01   2.93910e-01
Si    4.19867e+00   4.19448e+00   7.00857e+00 -5.99280e-02  -4.96477e-02   9.35440e-02
Si    1.37256e+00   4.21142e+00   9.79059e+00  3.24661e-01   2.39854e-01   2.89062e-01
Si    4.18938e+00   1.38601e+00   9.77811e+00  1.25976e-01  -1.28565e-01   5.67950e-01
Si    5.60405e+00   6.75617e-03   5.63608e+00  1.32409e-01  -1.42875e-01  -4.67920e-01
Si    8.42791e+00   2.79488e+00   5.59910e+00 -3.66638e-01  -8.85610e-02  -4.95290e-02
Si    5.58696e+00   2.77384e+00   8.40576e+00  1.99866e-01   2.48813e-01  -4.91462e-03
Si    8.42951e+00   1.11976e+01   8.39814e+00 -2.73659e-01  -1.15753e-01   5.35492e-02
Si    7.00553e+00   1.37390e+00   7.02641e+00  2.61349e-01   4.02782e-01  -2.19225e-01
Si    9.79669e+00   4.20438e+00   7.01462e+00  1.67471e-01   1.34607e-01  -1.24433e-01
Si    6.98670e+00   4.18230e+00   9.82774e+00  6.46207e-02   1.74441e-01  -4.51851e-01
Si    9.79511e+00   1.40684e+00   9.78528e+00  3.35458e-01  -1.18720e-01   1.95315e-01
Si    1.12065e+01   5.59754e+00   5.58203e+00  4.72095e-02  -1.38731e-01   5.66789e-01
Si    2.82144e+00   8.40899e+00   5.58767e+00 -3.59049e-02  -1.19811e-01   1.27393e-01
Si    1.12047e+01   8.38953e+00   8.42673e+00  1.60174e-01   1.85455e-01  -7.20895e-02
Si    2.77476e+00   5.61337e+00   8.37518e+00  4.09592e-01  -1.39210e-01   5.61444e-01
Si    1.40287e+00   6.98751e+00   6.99701e+00 -2.19519e-01   4.47578e-01  -2.64142e-01
Si    4.19709e+00   9.84332e+00   6.99987e+00  6.75253e-02  -6.31070e-01   1.73403e-01
Si    1.39669e+00   9.83396e+00   9.84116e+00 -6.80052e-02  -5.74273e-01  -6.13126e-01
Si    4.18308e+00   7.02839e+00   9.82931e+00  3.20133e-01  -3.62958e-01  -5.00619e-01
Si    5.59437e+00   5.58597e+00   5.62271e+00 -1.78965e-02   5.96932e-02  -4.90978e-01
Si    8.39748e+00   8.43544e+00   5.58625e+00  1.10698e-01  -6.33288e-01   1.84937e-01
Si    5.62140e+00   8.41463e+00   8.39541e+00 -6.30866e-01  -1.77202e-02   4.57264e-02
Si    8.39210e+00   5.61552e+00   8.40938e+00 -1.83628e-01  -2.07704e-01   1.19749e-01
Si    6.97350e+00   6.99284e+00   6.99425e+00  5.09143e-01   3.04751e-01  -3.48873e-02
Si    9.82209e+00   9.79771e+00   6.99283e+00 -4.99308e-02   1.95768e-02   1.39004e-01
Si    6.97817e+00   9.81974e+00   9.79567e+00  5.61761e-01  -8.50931e-02   5.96434e-02
Si    9.77397e+00   7.01718e+00   9.82958e+00  4.02639e-01  -2.65836e-01  -3.30127e-01
