8
Lattice="5.550482 0 0 0 5.550482 0 0 0 5.550482 " PBC="1 1 1" Properties=species:S:1:pos:R:3:force:R:3 Energy="-34.4808121612"
Si    0.00000e+00   0.00000e+00   0.00000e+00 -4.44089e-16  -2.89511e-16  -3.51000e-16
Si    2.77524e+00   2.77524e+00   0.00000e+00  6.60583e-15   6.71685e-15   2.22045e-16
Si    0.00000e+00   2.77524e+00   2.77524e+00  3.33067e-16   6.65877e-15   6.77321e-15
Si    2.77524e+00   0.00000e+00   2.77524e+00  6.55032e-15   3.33067e-16   6.77236e-15
Si    1.38762e+00   1.38762e+00   1.38762e+00  1.11022e-16   1.78489e-16   1.37496e-16
Si    4.16286e+00   4.16286e+00   1.38762e+00 -6.42221e-15  -6.42563e-15  -7.39578e-16
Si    1.38762e+00   4.16286e+00   4.16286e+00 -6.10623e-16  -6.55032e-15  -6.55032e-15
Si    4.16286e+00   1.38762e+00   4.16286e+00 -6.36670e-15  -7.95090e-16  -6.48114e-15
