8
Lattice="5.409276 0 0 0 5.409276 0 0 0 5.409276 " PBC="1 1 1" Properties=species:S:1:pos:R:3:force:R:3 Energy="-34.6854763118"
Si    0.00000e+00   0.00000e+00   0.00000e+00  4.27436e-15   9.60516e-15   4.28303e-15
Si    2.70464e+00   2.70464e+00   0.00000e+00  5.13478e-16   6.63358e-15   6.86950e-15
Si    0.00000e+00   2.70464e+00   2.70464e+00  3.95517e-15   3.52407e-15   3.51164e-15
Si    2.70464e+00   0.00000e+00   2.70464e+00  4.78784e-16   7.00134e-15   6.59195e-15
Si    1.35232e+00   1.35232e+00   1.35232e+00  1.94289e-16   1.96258e-16   9.71445e-17
Si    4.05696e+00   4.05696e+00   1.35232e+00 -7.87044e-15  -1.39962e-14   5.71990e-16
Si    1.35232e+00   4.05696e+00   4.05696e+00  3.57353e-15  -1.08247e-14  -1.07622e-14
Si    4.05696e+00   1.35232e+00   4.05696e+00 -5.10876e-15  -2.15054e-15  -1.11676e-14
