64
Lattice="11.253032 0 0 0 11.253032 0 0 0 11.253032 " PBC="1 1 1" Properties=species:S:1:pos:R:3:force:R:3 Energy="-272.78353243"
Si    1.12240e+01   1.12470e+01   1.12496e+01  2.34726e-01   1.07588e-01   6.68872e-02
Si    2.78861e+00   2.81601e+00   1.12481e+01  4.06848e-01  -1.60999e-01  -9.36317e-02
Si    1.12463e+01   2.80937e+00   2.82142e+00  2.69030e-02   1.40618e-01  -2.82174e-01
Si    2.79288e+00   1.12487e+01   2.84115e+00  2.27478e-01   1.96636e-01  -1.80043e-01
Si    1.39813e+00   1.40929e+00   1.40251e+00 -1.06349e-01  -1.86695e-01   1.03438e-01
Si    4.24058e+00   4.21068e+00   1.39348e+00 -4.91236e-01  -1.56758e-01   4.78733e-02
Si    1.40021e+00   4.22766e+00   4.19447e+00 -5.88570e-02  -1.35775e-01   3.06237e-01
Si    4.24070e+00   1.42081e+00   4.23017e+00 -3.92497e-01  -1.11941e-01  -3.10624e-02
Si    5.61547e+00   1.12508e+01   1.12388e+01 -7.56959e-02   1.25281e-01   3.13643e-01
Si    8.44386e+00   2.82989e+00   1.12467e+01 -7.54482e-02  -5.74557e-01   2.22592e-01
Si    5.62807e+00   2.81937e+00   2.80828e+00  1.12556e-01  -1.37436e-01   5.95287e-02
Si    8.46369e+00   1.12513e+01   2.81951e+00 -3.33752e-01   3.48896e-02   4.64373e-01
Si    7.03988e+00   1.37945e+00   1.43331e+00 -1.41460e-02   3.62682e-01  -4.63928e-01
Si    9.83537e+00   4.21892e+00   1.40192e+00  3.83888e-01   3.31296e-02   1.80470e-02
Si    7.01887e+00   4.23060e+00   4.21498e+00  3.10837e-01  -3.46759e-02  -8.26423e-02
Si    9.86358e+00   1.42334e+00   4.23087e+00 -2.52991e-01  -1.62221e-01  -3.57811e-02
Si    1.82730e-02   5.65066e+00   2.56785e-02 -2.83340e-01  -2.06408e-01  -9.97960e-02
Si    2.80242e+00   8.45963e+00   1.12506e+01  1.85250e-02  -2.09220e-01  -3.79887e-02
Si    2.05373e-02   8.42674e+00   2.78579e+00 -6.54013e-01   4.24155e-01   6.53487e-01
Si    2.79861e+00   5.60352e+00   2.78139e+00  3.29775e-01   3.48340e-01   2.20585e-01
Si    1.40313e+00   7.06522e+00   1.42781e+00  3.90870e-01  -3.96667e-01  -4.75913e-01
Si    4.20353e+00   9.84173e+00   1.41542e+00  7.58877e-02   1.91187e-01  -2.16907e-02
Si    1.38526e+00   9.84946e+00   4.23532e+00  2.84992e-01  -3.89203e-01  -3.06623e-01
Si    4.21756e+00   7.02765e+00   4.21494e+00 -9.76263e-02  -1.59373e-01  -1.12031e-01
Si    5.61385e+00   5.60715e+00   9.43227e-03  2.90917e-01   3.19535e-01  -7.21747e-02
Si    8.41072e+00   8.44291e+00   1.12460e+01  3.11690e-01  -9.44919e-02   1.71155e-01
Si    5.62214e+00   8.42968e+00   2.80835e+00 -1.13736e-01   1.45343e-01   1.33204e-01
Si    8.45356e+00   5.62167e+00   2.79672e+00 -3.76879e-01   5.63917e-02   1.95791e-01
Si    7.01501e+00   7.02753e+00   1.41468e+00  1.57828e-01  -8.30897e-02  -1.74254e-01
Si    9.83145e+00   9.86554e+00   1.42019e+00  1.33939e-01  -5.29217e-01  -2.95751e-01
Si    7.01057e+00   9.84359e+00   4.23436e+00  1.93335e-01   1.20296e-01  -3.71443e-01
Si    9.82436e+00   7.03203e+00   4.22029e+00  4.44557e-01  -5.96383e-03  -1.85762e-01
Si    1.42309e-02   1.12476e+01   5.60115e+00 -2.25657e-01   3.66968e-01   6.71412e-01
Si    2.79557e+00   2.82097e+00   5.63022e+00  2.97268e-01   1.73842e-01   3.66413e-02
Si    7.62777e-03   2.82105e+00   8.44212e+00 -3.08793e-01  -1.77737e-01   9.86438e-02
Si    2.84520e+00   2.72087e-03   8.41717e+00 -9.15123e-01   4.05068e-02   4.75768e-01
Si    1.40599e+00   1.42231e+00   7.05535e+00  4.05084e-02  -2.97936e-01  -3.89705e-01
Si    4.22591e+00   4.24127e+00   7.05633e+00  6.25100e-02  -1.71343e-01  -3.43360e-01
Si    1.38320e+00   4.21727e+00   9.85990e+00  2.13030e-01   2.28159e-01  -1.70073e-02
Si    4.21871e+00   1.40331e+00   9.80898e+00  9.44397e-02   3.30441e-01   4.36824e-01
Si    5.61824e+00   1.12484e+01   5.63656e+00 -2.98927e-02   1.25051e-01   1.10689e-01
Si    8.43335e+00   2.82692e+00   5.62759e+00 -7.87627e-03  -1.23696e-01  -2.38629e-01
Si    5.65288e+00   2.84537e+00   8.45350e+00 -1.39404e-01  -2.71403e-01  -1.58145e-01
Si    8.41725e+00   1.12213e+01   8.42104e+00  3.90433e-02   6.03856e-01   2.01157e-01
Si    7.03756e+00   1.42087e+00   7.01993e+00 -1.28261e-01  -1.26672e-01   2.01316e-01
Si    9.83973e+00   4.19587e+00   7.02654e+00  4.30059e-02   2.90463e-01   2.79183e-01
Si    7.04627e+00   4.22796e+00   9.87375e+00 -1.11204e-01   6.71577e-02  -1.42799e-01
Si    9.83692e+00   1.38799e+00   9.83309e+00 -1.25952e-01   2.00714e-01  -8.98952e-02
Si    1.12409e+01   5.61009e+00   5.63288e+00  2.07044e-02   1.43586e-01  -2.02131e-01
Si    2.81088e+00   8.43352e+00   5.62326e+00 -1.96831e-02   1.31496e-01   7.34392e-02
Si    1.12338e+01   8.46686e+00   8.46711e+00  2.16269e-02  -6.06593e-01  -6.07560e-01
Si    2.82365e+00   5.61757e+00   8.46410e+00 -1.86269e-01   2.16035e-01  -7.02543e-03
Si    1.41378e+00   7.01901e+00   7.02452e+00 -2.41534e-01   1.95399e-01   4.11609e-01
Si    4.18971e+00   9.86519e+00   7.05575e+00  4.60116e-01  -4.57063e-01  -5.12189e-01
Si    1.37328e+00   9.84049e+00   9.83859e+00  5.55427e-01   4.73862e-01   8.19627e-02
Si    4.24179e+00   7.03952e+00   9.85767e+00 -4.00731e-01  -6.50786e-02   1.13303e-01
Si    5.64921e+00   5.64112e+00   5.62491e+00 -3.53201e-01  -6.69750e-02   8.93243e-02
Si    8.42897e+00   8.44723e+00   5.60310e+00  1.65465e-01   1.01964e-01   3.97330e-01
Si    5.60596e+00   8.45362e+00   8.45391e+00  3.44442e-01  -3.53638e-02  -2.52001e-01
Si    8.45125e+00   5.61581e+00   8.46655e+00 -1.64514e-01  -4.13999e-02  -5.03017e-01
Si    7.04784e+00   7.03971e+00   7.02505e+00 -7.56797e-02   7.70599e-02   3.83132e-01
Si    9.83746e+00   9.87225e+00   7.04039e+00  1.21794e-01  -4.10990e-01  -4.21948e-01
Si    7.02358e+00   9.86215e+00   9.85552e+00 -1.23016e-01  -2.64869e-01  -1.84557e-01
Si    9.84227e+00   7.00795e+00   9.84353e+00  6.84234e-02   4.79176e-01   3.54082e-01
