64
Lattice="11.883028 0 0 0 11.883028 0 0 0 11.883028 " PBC="1 1 1" Properties=species:S:1:pos:R:3:force:R:3 Energy="-250.026552309"
Si    1.18575e+01   3.80316e-02   1.18539e+01  4.90780e-01  -2.32625e-01   5.09201e-01
Si    2.95248e+00   2.94549e+00   1.18752e+01  2.55614e-01   3.36265e-01   5.51872e-02
Si    1.18602e+01   3.00592e+00   2.97000e+00  2.99336e-01  -4.62099e-01   2.12772e-01
Si    2.95255e+00   1.18747e+01   2.97178e+00  1.69841e-01  -1.16265e-01  -1.84578e-01
Si    1.49341e+00   1.50949e+00   1.50834e+00 -3.89478e-01  -2.01740e-01  -1.98806e-01
Si    4.46748e+00   4.43732e+00   1.47045e+00 -3.78967e-01   2.41921e-01  -1.13820e-01
Si    1.47777e+00   4.47633e+00   4.42718e+00  1.70556e-01  -1.47458e-01   3.11741e-01
Si    4.42661e+00   1.46442e+00   4.42348e+00  3.41766e-01   2.56772e-01   3.21025e-01
Si    5.94947e+00   2.39108e-02   1.18671e+01  2.84413e-02  -1.31785e-01   9.05834e-02
Si    8.92430e+00   2.94100e+00   4.34785e-04 -8.88876e-02   5.12485e-01   1.63273e-01
Si    5.91141e+00   3.00613e+00   2.95150e+00  3.06137e-01  -5.64143e-01   1.71787e-01
Si    8.90975e+00   1.18651e+01   2.95912e+00 -1.92730e-01   1.86900e-01   3.32443e-01
Si    7.42966e+00   1.49477e+00   1.49416e+00 -1.15264e-01  -4.34608e-02  -4.75192e-02
Si    1.04279e+01   4.43674e+00   1.50268e+00 -4.47882e-01   2.20924e-01  -3.16674e-01
Si    7.44337e+00   4.43244e+00   4.43491e+00 -2.70363e-01   2.97961e-01   2.76753e-01
Si    1.03789e+01   1.49329e+00   4.46168e+00  9.22313e-02   1.50381e-02  -3.45857e-02
Si    1.18825e+01   5.92487e+00   1.18817e+01  2.98836e-01   1.59412e-01   9.32417e-02
Si    2.95748e+00   8.92401e+00   1.85236e-02  4.47689e-01  -2.28666e-02  -3.20886e-01
Si    2.03341e-02   8.90929e+00   2.94915e+00 -1.70320e-01   4.83855e-02   2.28072e-01
Si    2.99965e+00   5.93280e+00   2.98295e+00 -9.49896e-02   9.62635e-02  -3.48485e-01
Si    1.51950e+00   7.44941e+00   1.48116e+00 -2.66648e-01  -4.67208e-01   7.69442e-02
Si    4.48204e+00   1.03950e+01   1.48276e+00 -1.50263e-01   5.43672e-02   1.11805e-01
Si    1.50629e+00   1.03815e+01   4.46013e+00 -3.36116e-01   2.04356e-01  -1.16443e-01
Si    4.48276e+00   7.41206e+00   4.44405e+00 -3.92550e-01   2.00602e-01   1.80304e-01
Si    5.91756e+00   5.94742e+00   1.18735e+01  3.98163e-01  -4.92698e-02   1.70349e-01
Si    8.89471e+00   8.92086e+00   1.18483e+01  4.93704e-01  -3.65002e-02   2.91946e-01
Si    5.94827e+00   8.88626e+00   2.99481e+00  1.48817e-03   1.71981e-01  -3.59973e-01
Si    8.94184e+00   5.92429e+00   2.99566e+00 -2.69962e-01  -4.46709e-03  -4.57422e-01
Si    7.45085e+00   7.44375e+00   1.49366e+00 -1.62138e-01  -3.40694e-01  -7.38302e-02
Si    1.04003e+01   1.04225e+01   1.50381e+00  3.24740e-03  -2.78436e-01  -5.14524e-01
Si    7.40358e+00   1.03677e+01   4.45802e+00  3.22449e-01   2.94203e-01   3.02785e-02
Si    1.03720e+01   7.42087e+00   4.43277e+00  6.23934e-01   1.28813e-01   3.47724e-01
Si    1.79700e-02   1.76438e-02   5.93961e+00 -1.46179e-01  -2.18449e-01  -2.78468e-02
Si    2.98050e+00   2.98611e+00   5.93452e+00 -1.14533e-01  -2.67467e-02  -1.28512e-01
Si    1.22398e-02   2.96512e+00   8.90099e+00  3.55416e-02   2.19421e-01   1.30340e-02
Si    2.99124e+00   3.67568e-02   8.90955e+00 -1.17344e-01  -2.72332e-01   7.82706e-02
Si    1.49983e+00   1.47981e+00   7.41959e+00  2.87281e-02   2.34916e-01  -1.56037e-02
Si    4.46416e+00   4.49319e+00   7.41448e+00 -1.05932e-01  -2.61865e-01   7.79589e-02
Si    1.50852e+00   4.46674e+00   1.03906e+01 -2.97799e-01  -2.10504e-01   1.07554e-02
Si    4.45922e+00   1.50785e+00   1.03897e+01  1.43122e-01  -2.04335e-02  -5.84996e-02
Si    5.95339e+00   1.18785e+01   5.95158e+00 -2.89422e-01   2.23521e-02  -2.50038e-03
Si    8.90664e+00   2.98677e+00   5.96640e+00 -5.08954e-02  -2.49611e-01  -2.31496e-01
Si    5.96478e+00   2.97146e+00   8.88142e+00 -3.72979e-01   3.29785e-01   3.56199e-01
Si    8.88774e+00   1.30899e-02   8.90673e+00  4.74561e-01   1.61808e-01   2.50760e-01
Si    7.42075e+00   1.50225e+00   7.45757e+00  1.14955e-01  -1.79072e-01  -4.76988e-01
Si    1.03999e+01   4.45614e+00   7.40046e+00  7.71223e-02   1.51288e-01   3.87915e-01
Si    7.42524e+00   4.46113e+00   1.03958e+01  1.19051e-01  -1.47688e-02  -3.44257e-02
Si    1.04203e+01   1.52358e+00   1.04208e+01 -3.62691e-01  -3.16192e-01  -5.87272e-01
Si    2.81227e-02   5.93841e+00   5.95283e+00 -4.50296e-01   4.46904e-02  -4.28971e-01
Si    2.96076e+00   8.92045e+00   5.92745e+00  2.89293e-01  -3.40596e-01   2.04968e-01
Si    1.18781e+01   8.93302e+00   8.93208e+00  2.96914e-01  -1.95903e-01  -2.29162e-01
Si    2.94285e+00   5.95363e+00   8.90051e+00  3.56584e-01  -1.13538e-01   5.54913e-03
Si    1.47964e+00   7.40312e+00   7.41410e+00 -2.33484e-02   5.56955e-01   1.70637e-01
Si    4.44362e+00   1.03869e+01   7.45832e+00  9.51355e-02   1.54448e-01  -3.31712e-01
Si    1.51193e+00   1.04177e+01   1.03996e+01 -2.55679e-01   1.25451e-01  -3.60447e-03
Si    4.45262e+00   7.40323e+00   1.03890e+01 -2.87469e-01   3.28265e-01   1.14144e-01
Si    5.92547e+00   5.95415e+00   5.92219e+00  5.05082e-01  -1.45098e-01   8.84795e-03
Si    8.93548e+00   8.93341e+00   5.93643e+00 -1.39782e-01  -1.01249e-01  -1.30383e-02
Si    5.92597e+00   8.90479e+00   8.92337e+00  2.45031e-01   1.45944e-02  -7.54438e-02
Si    8.91017e+00   5.97451e+00   8.89938e+00  5.20025e-02  -3.59732e-01  -9.09619e-02
Si    7.43718e+00   7.44998e+00   7.39962e+00 -1.87792e-01  -3.20169e-02   1.21678e-01
Si    1.04030e+01   1.04123e+01   7.44665e+00  1.06483e-02   1.11051e-01  -1.75014e-01
Si    7.44187e+00   1.04097e+01   1.03846e+01 -3.68384e-01  -1.93689e-02  -1.09786e-02
Si    1.04253e+01   7.40455e+00   1.03775e+01 -2.90903e-01   2.94820e-01   2.33430e-01
