64
Lattice="11.274756 0 0 0 11.274756 0 0 0 11.274756 " PBC="1 1 1" Properties=species:S:1:pos:R:3:force:R:3 Energy="-272.230492043"
Si    1.12578e+01   1.12677e+01   1.19026e-02  2.44637e-01   6.03729e-02   1.63220e-01
Si    2.79723e+00   2.80870e+00   1.12664e+01  3.62336e-01   1.85086e-01  -5.40058e-03
Si    1.22677e-02   2.79533e+00   2.81409e+00  4.91966e-03   3.04645e-01   2.58272e-01
Si    2.80951e+00   1.12689e+01   2.82970e+00 -4.89378e-03   4.71872e-02  -2.51804e-01
Si    1.42298e+00   1.42764e+00   1.40774e+00 -2.40670e-01  -5.57401e-01   5.46040e-03
Si    4.21495e+00   4.21005e+00   1.42778e+00  2.17361e-02   7.08917e-02  -3.47163e-01
Si    1.40163e+00   4.23981e+00   4.22759e+00  2.80773e-02  -5.00686e-01   2.11002e-02
Si    4.21263e+00   1.42187e+00   4.20248e+00  3.22502e-01  -4.14984e-01   2.48571e-01
Si    5.62422e+00   1.12573e+01   1.12555e+01 -1.93578e-02   2.82719e-01   8.93663e-02
Si    8.46373e+00   2.84422e+00   2.95635e-03  7.39022e-02  -3.97968e-01   1.37768e-01
Si    5.63668e+00   2.82632e+00   2.83561e+00 -3.56346e-02  -2.67240e-01  -5.01609e-01
Si    8.48452e+00   1.82483e-02   2.82265e+00 -3.48354e-01   1.18498e-01  -1.04096e-01
Si    7.03824e+00   1.41138e+00   1.38082e+00  8.06163e-02   1.91960e-02   3.28930e-01
Si    9.87566e+00   4.20374e+00   1.42952e+00 -1.14764e-01   3.76061e-01   7.95622e-02
Si    7.02344e+00   4.23335e+00   4.20322e+00  4.92389e-01   7.49075e-02   5.47021e-01
Si    9.88082e+00   1.42934e+00   4.25476e+00 -1.28118e-01  -1.35293e-01  -1.01101e-01
Si    1.12619e+01   5.62983e+00   1.43432e-02  1.79543e-01   1.76348e-03  -5.96308e-02
Si    2.80135e+00   8.46385e+00   1.25378e-02  2.63422e-02   9.81373e-02  -3.82887e-01
Si    1.12677e+01   8.48016e+00   2.80458e+00 -1.54819e-01  -2.17184e-01   2.34313e-01
Si    2.80135e+00   5.61013e+00   2.82473e+00  1.18439e-01   6.12579e-01  -1.26575e-01
Si    1.39224e+00   7.07656e+00   1.41068e+00  9.44088e-02  -5.04703e-01   1.03616e-01
Si    4.20933e+00   9.86551e+00   1.39454e+00  5.15931e-02   5.10757e-02   1.43603e-01
Si    1.40332e+00   9.85409e+00   4.22953e+00 -2.04146e-02   5.31472e-02  -6.06956e-02
Si    4.23566e+00   7.05246e+00   4.22338e+00 -2.89500e-01  -2.16566e-01  -1.92879e-01
Si    5.62056e+00   5.63054e+00   1.12592e+01  3.32426e-01  -6.17386e-02   6.28421e-01
Si    8.45243e+00   8.46029e+00   1.12611e+01 -2.51705e-02  -3.82315e-01   3.45785e-01
Si    5.62035e+00   8.44219e+00   2.78201e+00  2.81562e-01   2.49661e-01   2.89111e-01
Si    8.47168e+00   5.65892e+00   2.84492e+00 -4.05360e-02  -5.59808e-01  -2.56637e-01
Si    7.07195e+00   7.02142e+00   1.42973e+00 -3.48229e-01   2.19579e-01  -5.19769e-01
Si    9.83572e+00   9.84650e+00   1.40932e+00  2.61246e-01   3.17189e-01  -6.95927e-02
Si    7.04083e+00   9.89058e+00   4.20525e+00  4.18361e-02  -4.62138e-01  -1.17739e-01
Si    9.85034e+00   7.06372e+00   4.22424e+00  5.04142e-01  -3.16708e-02   3.59317e-01
Si    1.12643e+01   1.12500e+01   5.63165e+00  3.98269e-01   4.12750e-01   2.70343e-01
Si    2.81967e+00   2.79400e+00   5.60994e+00 -8.56481e-02   4.40882e-01   2.26751e-01
Si    2.08834e-02   2.84873e+00   8.47145e+00 -3.11874e-01  -4.00498e-01  -2.24654e-01
Si    2.79824e+00   6.24117e-03   8.44017e+00  3.64891e-01  -9.80196e-02   7.24023e-02
Si    1.43287e+00   1.41703e+00   7.06052e+00 -5.78009e-01  -5.35581e-02  -3.90168e-01
Si    4.21810e+00   4.23130e+00   7.02822e+00 -2.47888e-01  -4.56460e-02  -1.78611e-01
Si    1.41269e+00   4.22658e+00   9.85887e+00 -1.70924e-01   1.25137e-01   4.02091e-01
Si    4.21137e+00   1.41099e+00   9.84585e+00  3.20121e-02  -5.99861e-02   5.11373e-02
Si    5.64075e+00   1.12572e+01   5.61844e+00 -2.75252e-01   4.46861e-01   1.28470e-01
Si    8.47205e+00   2.84671e+00   5.67000e+00 -3.68012e-01  -8.52290e-02  -5.84228e-01
Si    5.60044e+00   2.83495e+00   8.42684e+00  5.35312e-01   5.65396e-02   5.25846e-01
Si    8.46847e+00   2.32327e-02   8.45890e+00 -3.26098e-02  -1.36851e-01   8.12998e-03
Si    7.03690e+00   1.43358e+00   7.04003e+00  1.96272e-02  -2.56284e-01   2.67837e-02
Si    9.87078e+00   4.24328e+00   7.03636e+00  1.64730e-01   3.20751e-03   4.08599e-01
Si    7.07267e+00   4.23770e+00   9.89395e+00 -5.87291e-01  -1.09609e-01  -7.10781e-01
Si    9.88330e+00   1.41369e+00   9.89505e+00 -1.17045e-01   2.65268e-01  -3.37175e-01
Si    2.61265e-02   5.62508e+00   5.65372e+00 -5.73694e-01   2.94120e-01  -4.54690e-01
Si    2.79829e+00   8.43009e+00   5.62446e+00  1.25693e-01   9.18188e-02   1.49549e-01
Si    1.12672e+01   8.46042e+00   8.47770e+00  1.91086e-01  -3.03691e-01  -1.86287e-01
Si    2.78554e+00   5.60588e+00   8.44495e+00  6.99802e-01   5.14722e-01   2.63042e-01
Si    1.40263e+00   7.01569e+00   7.04488e+00 -4.45992e-02   4.59017e-01   2.49303e-01
Si    4.20729e+00   9.85593e+00   7.03391e+00  8.52822e-02  -2.84401e-02   6.06210e-02
Si    1.40205e+00   9.89685e+00   9.84945e+00 -2.77486e-02  -3.24712e-01   3.28283e-01
Si    4.24917e+00   7.06033e+00   9.88934e+00 -8.09324e-01  -3.14928e-01  -3.53136e-01
Si    5.62464e+00   5.63875e+00   5.62534e+00  2.35499e-01   7.59950e-02   1.31002e-01
Si    8.42806e+00   8.45371e+00   5.63845e+00  3.23762e-01   3.02018e-01  -6.18717e-02
Si    5.62096e+00   8.46296e+00   8.48568e+00  4.58738e-01   1.46488e-02  -4.13608e-01
Si    8.43439e+00   5.64023e+00   8.42845e+00  5.02339e-01  -1.68955e-01   5.07427e-01
Si    7.07159e+00   7.03427e+00   7.05117e+00 -8.62633e-01   3.06776e-01  -7.80888e-02
Si    9.88799e+00   9.85643e+00   7.05220e+00 -5.31606e-01   4.32485e-03  -4.65932e-03
Si    7.06626e+00   9.86879e+00   9.88937e+00 -2.18664e-01   1.01020e-01  -4.99999e-01
Si    9.85483e+00   7.03276e+00   9.87650e+00 -4.64128e-02   3.83035e-02  -2.17683e-01
