64
Lattice="10.21028 0 0 0 10.21028 0 0 0 10.21028 " PBC="1 1 1" Properties=species:S:1:pos:R:3:force:R:3 Energy="-262.153611279"
Si    9.25399e-03   1.50447e-02   1.01973e+01 -3.13823e-01  -1.06036e+00  -1.30297e-01
Si    2.53547e+00   2.58087e+00   8.89729e-03  3.09476e-01  -5.76680e-01   8.75978e-02
Si    1.01865e+01   2.57253e+00   2.54585e+00  7.21947e-01  -5.14534e-01   2.61648e-01
Si    2.52779e+00   1.01942e+01   2.57729e+00  5.21211e-01   4.88674e-01  -2.43355e-01
Si    1.25490e+00   1.25052e+00   1.25704e+00  3.90253e-01   8.34730e-01   8.08243e-01
Si    3.85673e+00   3.83054e+00   1.28272e+00 -4.19238e-01   2.72545e-01   4.51183e-02
Si    1.27785e+00   3.85024e+00   3.83738e+00  7.23226e-04  -1.08414e+00  -4.42597e-01
Si    3.84450e+00   1.28521e+00   3.85626e+00 -6.42995e-01  -1.68490e-01  -6.92156e-01
Si    5.08985e+00   1.01942e+01   1.84590e-02  7.76430e-01   3.89377e-01  -7.12646e-01
Si    7.66211e+00   2.54515e+00   1.20377e-02 -2.40266e-02   1.49983e-01  -6.09585e-02
Si    5.11865e+00   2.54964e+00   2.56995e+00 -8.44569e-03   1.85305e-01   3.49012e-02
Si    7.64344e+00   1.31258e-02   2.53406e+00  6.18043e-01  -2.05632e-01   4.43911e-01
Si    6.38458e+00   1.28625e+00   1.28945e+00 -4.21309e-01  -1.58498e-01  -4.03859e-01
Si    8.94850e+00   3.82669e+00   1.25914e+00 -6.00785e-01   2.12052e-01   2.91538e-01
Si    6.40608e+00   3.84037e+00   3.82448e+00 -5.57626e-01  -1.78266e-01   1.89002e-01
Si    8.94903e+00   1.26920e+00   3.85270e+00 -4.93099e-01   1.69686e-01  -5.77407e-01
Si    1.22479e-02   5.10565e+00   2.57234e-02 -4.32395e-01  -9.15433e-02  -1.23058e+00
Si    2.58316e+00   7.67194e+00   1.02031e+01 -1.03822e+00  -5.69697e-01  -1.06225e-01
Si    1.01855e+01   7.67467e+00   2.52317e+00  7.11897e-01  -2.38604e-01   5.04210e-01
Si    2.54111e+00   5.10000e+00   2.57417e+00  4.83663e-01   2.25251e-01  -5.64410e-01
Si    1.25487e+00   6.36667e+00   1.27183e+00  9.18209e-01   7.59100e-01   2.37319e-01
Si    3.80596e+00   8.94505e+00   1.24880e+00  2.35844e-01  -1.11284e-01   1.18157e+00
Si    1.28833e+00   8.91058e+00   3.85246e+00 -7.31205e-01  -3.34986e-02  -5.84643e-01
Si    3.85214e+00   6.37110e+00   3.82938e+00 -5.47570e-01   6.04972e-01  -1.88905e-01
Si    5.10902e+00   5.12890e+00   1.01926e+01  2.85441e-01  -1.88904e-01   5.97461e-01
Si    7.68186e+00   7.67550e+00   7.68780e-03 -8.09038e-01  -7.45773e-01  -1.98260e-01
Si    5.11087e+00   7.67234e+00   2.54789e+00 -5.40637e-01  -1.01936e-01  -3.33041e-01
Si    7.65570e+00   5.09009e+00   2.55774e+00  6.53785e-01   2.02481e-01  -2.98810e-01
Si    6.39417e+00   6.37926e+00   1.30463e+00 -9.54797e-03   2.46849e-01  -6.63203e-01
Si    8.91926e+00   8.91709e+00   1.26388e+00  3.83409e-01   1.28084e+00  -1.86792e-02
Si    6.37033e+00   8.94093e+00   3.80462e+00  3.03889e-01   9.61912e-02   1.21221e-01
Si    8.94082e+00   6.39347e+00   3.81034e+00 -1.06444e-01  -3.32357e-01   2.09518e-01
Si    1.02003e+01   1.01808e+01   5.10031e+00  4.18957e-01   2.32288e-01   3.57171e-01
Si    2.52834e+00   2.53599e+00   5.10670e+00  7.90791e-01   9.29961e-01   1.44459e-01
Si    1.01885e+01   2.52464e+00   7.66090e+00  1.20437e-01   4.74878e-01  -4.86410e-01
Si    2.56719e+00   1.02069e+01   7.65187e+00 -2.04750e-01   6.48377e-01   3.09386e-02
Si    1.28277e+00   1.27826e+00   6.36801e+00 -5.63242e-01  -6.61988e-01   3.69459e-01
Si    3.84753e+00   3.84758e+00   6.39494e+00 -5.52757e-01  -2.24170e-01  -7.06924e-01
Si    1.26151e+00   3.80829e+00   8.92114e+00 -3.01525e-01   3.12763e-01   2.67389e-01
Si    3.82538e+00   1.28494e+00   8.94102e+00 -1.00701e-01  -1.25395e-02   1.74335e-01
Si    5.11218e+00   2.22727e-03   5.07912e+00  1.93764e-01  -5.47243e-02   7.83760e-01
Si    7.65745e+00   2.57212e+00   5.10199e+00  1.47600e-01  -4.31975e-01  -2.17644e-02
Si    5.09731e+00   2.55045e+00   7.64666e+00  5.95019e-01  -6.47471e-02   3.58945e-01
Si    7.64585e+00   1.01882e+01   7.63140e+00  6.61141e-01   5.19744e-01   6.69409e-01
Si    6.40779e+00   1.27178e+00   6.37621e+00 -6.67315e-01   1.84124e-01  -2.76414e-01
Si    8.91117e+00   3.83764e+00   6.37521e+00  6.57113e-01  -2.06830e-01   1.17413e-01
Si    6.39041e+00   3.82905e+00   8.95073e+00 -2.17460e-01  -1.86562e-01  -3.85231e-01
Si    8.94011e+00   1.28128e+00   8.95383e+00 -7.03002e-01  -5.83579e-01  -5.64512e-01
Si    1.26127e-02   5.07772e+00   5.07843e+00 -6.07470e-01   8.89040e-01   5.80847e-01
Si    2.55483e+00   7.66359e+00   5.10821e+00  7.73845e-01  -2.50117e-01   2.08705e-01
Si    1.01960e+01   7.64856e+00   7.63602e+00  2.29280e-01   2.30347e-01   7.17061e-02
Si    2.53836e+00   5.09200e+00   7.67279e+00  3.30582e-01   6.02072e-01  -1.29749e-01
Si    1.27941e+00   6.38506e+00   6.35993e+00 -1.42446e-01  -4.72542e-01   2.23259e-01
Si    3.83594e+00   8.95618e+00   6.40037e+00  1.65853e-01  -3.55111e-01  -6.79382e-01
Si    1.29440e+00   8.93826e+00   8.90372e+00 -3.94866e-01  -2.54351e-01   3.29656e-01
Si    3.85295e+00   6.40409e+00   8.93284e+00 -6.36333e-01  -4.15635e-01  -2.35031e-01
Si    5.12002e+00   5.12697e+00   5.08760e+00  1.22830e-01  -5.20296e-01   4.72330e-01
Si    7.64532e+00   7.66536e+00   5.08628e+00 -2.42557e-01  -3.76840e-01   1.29070e-02
Si    5.10298e+00   7.67213e+00   7.66827e+00  3.35486e-02  -4.23407e-02  -3.33241e-01
Si    7.64894e+00   5.10150e+00   7.64910e+00 -7.50668e-02   2.29701e-01   3.25432e-01
Si    6.36476e+00   6.39074e+00   6.39844e+00  2.79890e-01   1.57191e-01  -3.83356e-01
Si    8.90919e+00   8.92047e+00   6.36289e+00  2.92732e-01  -2.27355e-02   9.04244e-02
Si    6.40192e+00   8.91303e+00   8.91084e+00 -4.17645e-01   5.07452e-01   7.96916e-01
Si    8.92134e+00   6.39477e+00   8.92792e+00  3.95932e-01  -5.38689e-01   2.53320e-01
