64
Lattice="9.971316 0 0 0 9.971316 0 0 0 9.971316 " PBC="1 1 1" Properties=species:S:1:pos:R:3:force:R:3 Energy="-249.1314578"
Si    9.96887e+00   9.34608e-06   9.97129e+00  1.27707e-01  -5.73482e-02  -8.17820e-03
Si    2.49100e+00   2.49104e+00   9.96991e+00  3.72416e-02   7.97197e-02   4.82498e-02
Si    9.97091e+00   2.49157e+00   2.49076e+00  2.17225e-02   1.81326e-02   3.69834e-02
Si    2.49206e+00   9.96965e+00   2.49472e+00  5.02893e-02   2.49695e-02   1.28733e-03
Si    1.24866e+00   1.24411e+00   1.24741e+00 -5.85167e-02  -9.34735e-03  -2.52954e-02
Si    3.73961e+00   3.74123e+00   1.24725e+00 -3.85737e-02  -9.68769e-02  -3.61950e-02
Si    1.24665e+00   3.74025e+00   3.73868e+00 -2.40087e-02  -7.96077e-02  -1.21764e-02
Si    3.74021e+00   1.24803e+00   3.73907e+00 -1.79670e-02  -5.15002e-02  -2.90718e-02
Si    4.98785e+00   1.51434e-03   2.40986e-03 -1.27647e-02  -8.79942e-03  -5.09916e-02
Si    7.47684e+00   2.49293e+00   2.22120e-03  7.71890e-02   1.12211e-02  -8.19787e-02
Si    4.98640e+00   2.49463e+00   2.49518e+00  1.58218e-02  -1.58042e-02  -7.30099e-02
Si    7.47692e+00   9.97004e+00   2.49469e+00  6.22009e-02   1.98508e-02  -7.82663e-02
Si    6.23410e+00   1.24770e+00   1.24565e+00 -4.89272e-02  -7.57075e-03   1.10683e-01
Si    8.72472e+00   3.73979e+00   1.24640e+00 -1.20746e-02  -1.17484e-02   1.00231e-02
Si    6.23196e+00   3.73892e+00   3.74109e+00  3.83459e-02  -1.81664e-02   1.59752e-02
Si    8.72334e+00   1.24735e+00   3.74026e+00  4.87120e-02  -5.89299e-02  -7.62427e-03
Si    2.11990e-03   4.98336e+00   7.33474e-04 -2.69106e-02   6.90871e-02   8.21570e-03
Si    2.49352e+00   7.47830e+00   9.96909e+00 -1.13487e-02  -1.37454e-02   5.46700e-02
Si    9.96902e+00   7.47684e+00   2.49430e+00  3.47982e-02   5.28223e-02  -6.17682e-02
Si    2.49115e+00   4.98386e+00   2.49210e+00  3.36138e-02   7.03369e-02   2.10527e-02
Si    1.24634e+00   6.23306e+00   1.24792e+00  1.14712e-03  -4.89275e-03  -3.61485e-02
Si    3.73808e+00   8.72694e+00   1.24404e+00  2.93265e-02  -4.91690e-02   5.69562e-02
Si    1.24579e+00   8.72340e+00   3.73846e+00  6.26012e-03  -4.67996e-02   6.14580e-02
Si    3.73896e+00   6.23206e+00   3.73882e+00  6.54411e-03  -7.10150e-02   4.39172e-03
Si    4.98423e+00   4.98425e+00   9.96998e+00  2.70896e-02   3.25052e-02  -1.23600e-02
Si    7.47963e+00   7.47807e+00   4.18288e-04 -4.64803e-02  -4.78215e-02   4.82364e-03
Si    4.98563e+00   7.47814e+00   2.49400e+00 -4.50828e-02   2.68878e-02  -7.93588e-02
Si    7.47877e+00   4.98467e+00   2.49518e+00 -2.45087e-02   4.30893e-03  -4.10716e-02
Si    6.23070e+00   6.23027e+00   1.24699e+00  2.80854e-02   2.18845e-03  -7.43368e-03
Si    8.72486e+00   8.72332e+00   1.24447e+00 -2.16525e-02   3.32078e-02   8.64988e-02
Si    6.23227e+00   8.72385e+00   3.73726e+00 -5.93188e-02   2.91856e-02   1.05231e-01
Si    8.72485e+00   6.23273e+00   3.73694e+00 -5.14666e-03  -5.12067e-02   6.87379e-02
Si    5.38054e-07   9.96924e+00   4.98711e+00 -1.33167e-02   4.87774e-02  -5.96004e-02
Si    2.49412e+00   2.49164e+00   4.98367e+00 -1.37391e-02   5.83689e-02   6.14762e-02
Si    2.07998e-03   2.49292e+00   7.47666e+00 -3.54733e-02   1.84931e-03   6.53253e-02
Si    2.49090e+00   1.70331e-03   7.47872e+00  2.58989e-02   6.85920e-03   3.59197e-03
Si    1.24522e+00   1.24679e+00   6.23114e+00  3.87046e-02  -8.72349e-03  -3.34284e-02
Si    3.74070e+00   3.73921e+00   6.23439e+00 -6.63743e-02  -1.02646e-02  -5.42298e-02
Si    1.24652e+00   3.74125e+00   8.72365e+00  2.27921e-02  -5.03752e-02  -1.87757e-02
Si    3.73935e+00   1.24644e+00   8.72646e+00  3.38976e-02  -6.00882e-03  -3.95566e-02
Si    4.98353e+00   1.67621e-03   4.98717e+00  8.37373e-02  -2.36787e-02  -4.18380e-02
Si    7.47802e+00   2.49052e+00   4.98699e+00  2.61297e-02   9.42972e-02   1.73298e-02
Si    4.98655e+00   2.49492e+00   7.47879e+00  3.16807e-03  -5.66727e-02   3.99308e-02
Si    7.48082e+00   9.97036e+00   7.47768e+00 -7.57731e-02   2.10902e-02   7.12728e-02
Si    6.23322e+00   1.24742e+00   6.23320e+00 -3.65827e-02  -4.18319e-02   2.08287e-02
Si    8.72687e+00   3.74032e+00   6.23298e+00 -2.88482e-02  -5.17312e-02  -5.76316e-02
Si    6.23378e+00   3.73997e+00   8.72392e+00  2.22398e-03   9.09908e-03   1.25413e-02
Si    8.72654e+00   1.24514e+00   8.72592e+00 -5.04271e-02   8.62427e-02  -3.41538e-02
Si    1.78926e-04   4.98506e+00   4.98406e+00 -1.65024e-03   5.59494e-02   1.64601e-02
Si    2.49475e+00   7.47639e+00   4.98717e+00 -2.68949e-02   6.69469e-02  -9.93728e-03
Si    9.14720e-04   7.47830e+00   7.47930e+00 -3.47273e-02   2.94673e-02  -5.85998e-02
Si    2.49175e+00   4.98746e+00   7.47688e+00  4.91454e-02  -1.66018e-02   3.82583e-02
Si    1.24681e+00   6.23189e+00   6.23294e+00 -4.70478e-02   1.00236e-03  -4.84300e-02
Si    3.73912e+00   8.72716e+00   6.23383e+00 -3.21493e-02  -2.33953e-02  -3.58127e-03
Si    1.24840e+00   8.72254e+00   8.72319e+00 -6.54899e-02   7.86616e-02   5.26091e-02
Si    3.73913e+00   6.23324e+00   8.72419e+00  2.32510e-03  -3.50743e-02  -1.86144e-02
Si    4.98598e+00   4.98339e+00   4.98636e+00 -2.40586e-02   5.11313e-02  -2.85842e-03
Si    7.47939e+00   7.47797e+00   4.98385e+00 -2.88926e-02  -5.17324e-03   3.81479e-02
Si    4.98524e+00   7.47968e+00   7.47891e+00  1.72073e-02  -2.65034e-02  -2.21122e-02
Si    7.48040e+00   4.98605e+00   7.47688e+00  2.15819e-02   1.14181e-02   6.51927e-02
Si    6.23253e+00   6.22985e+00   6.23329e+00 -1.43127e-02   6.21178e-02  -4.23849e-02
Si    8.72341e+00   8.72692e+00   6.23194e+00  4.92116e-02  -1.04958e-01   1.89485e-03
Si    6.23178e+00   8.72309e+00   8.72644e+00  3.27701e-02   5.83043e-02  -1.96244e-02
Si    8.72698e+00   6.23304e+00   8.72574e+00 -5.84888e-03  -5.46651e-02   6.18753e-03
