8
Lattice="5.061692 0 0 0 5.061692 0 0 0 5.061692 " PBC="1 1 1" Properties=species:S:1:pos:R:3:force:R:3 Energy="-32.2820821028"
Si    0.00000e+00   0.00000e+00   0.00000e+00 -9.32587e-15  -1.08247e-14  -1.08214e-14
Si    2.53085e+00   2.53085e+00   0.00000e+00 -4.23273e-16  -2.99457e-16  -1.10569e-14
Si    0.00000e+00   2.53085e+00   2.53085e+00 -9.76996e-15  -4.75314e-16  -1.78459e-16
Si    2.53085e+00   0.00000e+00   2.53085e+00 -5.29091e-16  -1.07414e-14  -1.40078e-16
Si    1.26542e+00   1.26542e+00   1.26542e+00  4.64906e-16   2.84495e-16   6.61356e-16
Si    3.79627e+00   3.79627e+00   1.26542e+00  1.00493e-14   9.95796e-15   1.79162e-15
Si    1.26542e+00   3.79627e+00   3.79627e+00  5.58581e-16   1.06963e-14   9.81203e-15
Si    3.79627e+00   1.26542e+00   3.79627e+00  1.10250e-14   5.46438e-16   9.66719e-15
