64
Lattice="10.64476 0 0 0 10.64476 0 0 0 10.64476 " PBC="1 1 1" Properties=species:S:1:pos:R:3:force:R:3 Energy="-276.020651203"
Si    1.06443e+01   1.06424e+01   1.53569e-03  2.54292e-02   2.62630e-02  -2.57107e-03
Si    2.66006e+00   2.66093e+00   1.06437e+01  4.55206e-02   2.75913e-02   1.06315e-04
Si    1.40508e-04   2.66185e+00   2.66266e+00  7.57539e-03  -4.78154e-02  -3.76607e-02
Si    2.66218e+00   2.55974e-03   2.66173e+00 -5.82294e-04  -5.06813e-02  -1.85475e-02
Si    1.33227e+00   1.33171e+00   1.32808e+00 -4.97582e-02  -1.58733e-02   5.24645e-02
Si    3.99394e+00   3.99152e+00   1.32857e+00 -4.88443e-02  -2.12117e-03   1.66428e-02
Si    1.33238e+00   3.99020e+00   3.99005e+00 -4.12789e-02   4.89455e-02   5.52371e-02
Si    3.99151e+00   1.33150e+00   3.99422e+00  6.04647e-03   3.47630e-02  -3.67731e-02
Si    5.32415e+00   4.42288e-05   6.92035e-04 -6.42268e-02   2.45490e-03  -3.00856e-02
Si    7.98535e+00   2.66091e+00   1.39601e-03 -4.36111e-02  -1.94531e-02  -4.56182e-02
Si    5.32311e+00   2.66046e+00   2.65861e+00  1.74222e-03   7.72149e-04   5.68631e-02
Si    7.98379e+00   1.06438e+01   2.65930e+00  3.73303e-04  -2.25379e-02   5.09264e-02
Si    6.65324e+00   1.32893e+00   1.33006e+00  2.11404e-02   2.49358e-02  -6.80699e-06
Si    9.31278e+00   3.98932e+00   1.33096e+00  3.17847e-02   7.26624e-02   2.82422e-02
Si    6.65523e+00   3.99008e+00   3.99287e+00 -8.91806e-02   2.70839e-02  -1.86568e-02
Si    9.31534e+00   1.32810e+00   3.99223e+00 -4.79967e-02   4.70288e-02  -2.44419e-02
Si    1.05212e-03   5.32456e+00   2.48394e-03 -3.25318e-02  -7.20611e-02  -4.28055e-02
Si    2.66298e+00   7.98597e+00   3.36669e-05 -6.38567e-02  -6.48395e-02  -5.32230e-02
Si    1.06431e+01   7.98128e+00   2.66346e+00  4.99700e-02   2.09386e-02  -1.37144e-02
Si    2.66061e+00   5.32189e+00   2.65944e+00  3.50322e-02   1.04474e-02   5.44015e-03
Si    1.32864e+00   6.65303e+00   1.32975e+00  5.79285e-02   4.53507e-02   2.82141e-02
Si    3.99156e+00   9.31176e+00   1.32930e+00  1.37075e-03   1.02524e-01   2.39783e-02
Si    1.33284e+00   9.31197e+00   3.99239e+00 -5.74852e-02   5.94085e-02  -1.96946e-02
Si    3.99312e+00   6.65281e+00   3.99250e+00 -5.01077e-02   1.07974e-02  -5.67218e-02
Si    5.32200e+00   5.32482e+00   2.02174e-03 -1.08393e-03  -1.38906e-02  -4.02479e-02
Si    7.98154e+00   7.98132e+00   2.10309e-03  7.46131e-02   4.04735e-02  -4.44290e-02
Si    5.31978e+00   7.98488e+00   2.65924e+00  5.29498e-02  -3.08726e-02   4.38258e-02
Si    7.98170e+00   5.32214e+00   2.66291e+00  1.76284e-02  -1.01169e-02  -5.02736e-02
Si    6.65245e+00   6.65382e+00   1.32998e+00 -1.76270e-02  -1.72082e-02   5.97749e-02
Si    9.31647e+00   9.31226e+00   1.33255e+00 -5.25780e-02  -1.60694e-02  -2.15021e-02
Si    6.65294e+00   9.31221e+00   3.99379e+00 -2.41309e-02   3.89943e-02  -7.08185e-02
Si    9.31210e+00   6.65310e+00   3.99063e+00 -9.61330e-04  -2.44536e-02   5.91730e-02
Si    1.06431e+01   8.87234e-04   5.32248e+00  9.78524e-02  -2.72201e-02  -1.45494e-03
Si    2.66007e+00   2.66231e+00   5.32486e+00  2.77001e-02  -5.06574e-03  -2.18127e-02
Si    1.06421e+01   2.65969e+00   7.98336e+00  8.76608e-02   3.35566e-02   2.75570e-02
Si    2.66346e+00   1.06442e+01   7.98572e+00 -6.71118e-02   4.13061e-03  -2.31170e-02
Si    1.33278e+00   1.33036e+00   6.65429e+00 -4.61590e-02  -1.78816e-02   4.82450e-03
Si    3.99044e+00   3.99318e+00   6.65461e+00  4.18337e-02  -9.21225e-03  -3.67832e-02
Si    1.33310e+00   3.99333e+00   9.31481e+00 -8.39947e-02  -2.33790e-02  -1.88701e-02
Si    3.98939e+00   1.33112e+00   9.31288e+00  7.28021e-02  -8.63480e-03   4.71156e-02
Si    5.32175e+00   5.05518e-04   5.32107e+00 -5.87866e-03  -3.92103e-02   3.79069e-02
Si    7.98091e+00   2.65962e+00   5.32172e+00  8.92065e-02  -8.02407e-03   1.02971e-02
Si    5.32238e+00   2.66086e+00   7.98316e+00  1.53036e-02  -4.94164e-03  -1.01466e-02
Si    7.98246e+00   9.35662e-04   7.98405e+00  6.23550e-02  -1.89726e-02  -4.21115e-03
Si    6.65485e+00   1.32796e+00   6.65075e+00 -6.29139e-02   3.87164e-02   4.00113e-02
Si    9.31425e+00   3.99057e+00   6.65316e+00 -6.73938e-02  -6.81329e-03   7.27722e-03
Si    6.65093e+00   3.99345e+00   9.31640e+00  2.47062e-02  -3.48710e-02  -1.11251e-03
Si    9.31679e+00   1.32922e+00   9.31541e+00 -5.64312e-02  -1.78749e-03   3.74342e-03
Si    1.06424e+01   5.32125e+00   5.32407e+00  3.93578e-02  -2.75190e-03  -6.65306e-02
Si    2.66097e+00   7.98311e+00   5.32114e+00  1.08298e-02  -2.97961e-02   6.13969e-02
Si    1.06429e+01   7.98467e+00   7.98311e+00  3.58689e-02  -2.07064e-02  -2.04096e-02
Si    2.66102e+00   5.32180e+00   7.98258e+00  5.45178e-04   1.68951e-02   2.46897e-02
Si    1.32972e+00   6.65070e+00   6.65399e+00 -6.04335e-03   4.90945e-02  -2.31239e-02
Si    3.98978e+00   9.31473e+00   6.65489e+00  3.92546e-02  -7.22142e-03  -5.60147e-02
Si    1.32800e+00   9.31502e+00   9.31263e+00  4.77268e-02  -1.87261e-02   2.95272e-02
Si    3.99250e+00   6.65169e+00   9.31181e+00  5.34696e-04   5.10103e-02   1.73978e-02
Si    5.32127e+00   5.32492e+00   5.32146e+00  4.46581e-02  -6.33694e-02   2.88604e-02
Si    7.98155e+00   7.98358e+00   5.32251e+00  7.59855e-02   1.55369e-02  -4.18260e-03
Si    5.32447e+00   7.98505e+00   7.98144e+00 -1.65910e-02  -8.67370e-03   3.57197e-02
Si    7.98213e+00   5.32252e+00   7.98492e+00  2.28907e-02  -2.10489e-03  -2.64944e-02
Si    6.65459e+00   6.65507e+00   6.65102e+00 -3.14803e-02  -4.48474e-02   3.37509e-02
Si    9.31573e+00   9.31543e+00   6.65171e+00 -7.18071e-02  -1.20516e-02   1.90599e-02
Si    6.65425e+00   9.31559e+00   9.31511e+00 -9.90106e-03  -3.45494e-02  -5.32854e-03
Si    9.31636e+00   6.65269e+00   9.31328e+00 -5.46303e-02   8.43083e-03   3.73602e-02
