64
Lattice="11.861304 0 0 0 11.861304 0 0 0 11.861304 " PBC="1 1 1" Properties=species:S:1:pos:R:3:force:R:3 Energy="-251.422532302"
Si    1.18515e+01   9.23309e-03   8.99388e-03  1.22495e-01  -1.25214e-01  -1.51241e-01
Si    2.96697e+00   2.97007e+00   3.89286e-03 -4.73111e-02  -1.45096e-01   8.35502e-03
Si    1.18605e+01   2.96465e+00   2.97449e+00  1.04257e-02   2.66753e-02  -1.36323e-01
Si    2.96421e+00   1.28987e-04   2.96442e+00  3.53896e-02   3.39519e-02   4.04500e-02
Si    1.48035e+00   1.47717e+00   1.48678e+00  7.01051e-03   1.16001e-01   6.24571e-03
Si    4.44901e+00   4.43677e+00   1.47977e+00 -3.73107e-02   1.59987e-01   4.58853e-02
Si    1.47988e+00   4.44910e+00   4.44157e+00  1.32291e-02  -1.00045e-02   7.42128e-02
Si    4.44457e+00   1.49019e+00   4.45226e+00 -1.42194e-03  -3.54882e-02  -6.69425e-02
Si    5.93957e+00   2.38258e-03   1.18539e+01 -6.92303e-02  -4.65120e-02   2.77051e-02
Si    8.88958e+00   2.96442e+00   1.12145e-02  6.98532e-02  -4.98548e-02  -1.35181e-01
Si    5.92511e+00   2.96963e+00   2.96140e+00  4.73121e-02  -1.28287e-01   3.75015e-02
Si    8.90337e+00   2.58442e-03   2.95852e+00  1.21733e-02  -1.14205e-02   8.94219e-02
Si    7.41528e+00   1.47565e+00   1.48606e+00 -5.30689e-02   8.26512e-02  -5.80927e-03
Si    1.03785e+01   4.44695e+00   1.47766e+00  6.26119e-03  -4.69906e-02   1.22777e-01
Si    7.40620e+00   4.43874e+00   4.44851e+00  1.11837e-01   1.33590e-01  -1.73763e-02
Si    1.03845e+01   1.49303e+00   4.45370e+00 -6.56880e-02  -1.49870e-01  -9.26964e-03
Si    1.18600e+01   5.92275e+00   8.98882e-03  2.06366e-02   5.47592e-02  -1.61815e-01
Si    2.96644e+00   8.89302e+00   1.98522e-03  3.39262e-04   4.22907e-02  -1.16289e-03
Si    9.81827e-03   8.90447e+00   2.96641e+00 -1.00163e-01  -2.04187e-02  -5.73228e-02
Si    2.95912e+00   5.92781e+00   2.96161e+00  6.82087e-02   3.27360e-02  -2.19634e-02
Si    1.47423e+00   7.41622e+00   1.47848e+00  8.65667e-02  -3.58227e-02   5.60015e-02
Si    4.44708e+00   1.03854e+01   1.47985e+00  4.99715e-02  -3.94460e-02  -1.35678e-02
Si    1.48685e+00   1.03816e+01   4.44851e+00 -7.92326e-03   1.99298e-03   3.63126e-02
Si    4.44847e+00   7.41228e+00   4.45097e+00  2.83270e-02  -1.20203e-02  -8.38726e-02
Si    5.93399e+00   5.92830e+00   9.68511e-03 -4.92421e-03   6.45234e-03  -8.92073e-02
Si    8.89598e+00   8.88857e+00   1.18556e+01 -1.98312e-02   5.19348e-02   3.45191e-02
Si    5.93357e+00   8.90022e+00   2.96262e+00 -7.51518e-02   3.28425e-03   4.48240e-02
Si    8.90463e+00   5.93440e+00   2.96044e+00 -1.00639e-01  -7.12523e-02   7.80043e-02
Si    7.41165e+00   7.41770e+00   1.49018e+00  5.50904e-02  -4.23060e-02  -7.34325e-02
Si    1.03771e+01   1.03776e+01   1.47175e+00  1.46780e-02  -2.54184e-02   1.02846e-01
Si    7.41630e+00   1.03810e+01   4.44256e+00  1.22333e-02   2.65186e-03   3.03319e-02
Si    1.03872e+01   7.41561e+00   4.44289e+00 -4.07589e-02   7.21073e-03   2.54171e-02
Si    1.18594e+01   1.18585e+01   5.93712e+00  6.50204e-02   5.89461e-02  -5.03266e-02
Si    2.96275e+00   2.97197e+00   5.93138e+00  1.74057e-02   7.64083e-03  -4.99361e-03
Si    9.23388e-03   2.96651e+00   8.89558e+00 -1.23193e-01  -2.47678e-02   3.20254e-02
Si    2.96522e+00   6.98290e-03   8.89050e+00 -3.50186e-02  -3.92712e-02   1.03300e-01
Si    1.48601e+00   1.48751e+00   7.41629e+00 -3.24520e-02  -2.66146e-02  -6.63441e-02
Si    4.45491e+00   4.45339e+00   7.40852e+00 -6.85044e-02  -1.54727e-02   5.35543e-02
Si    1.49043e+00   4.43914e+00   1.03812e+01 -7.20784e-02   1.04623e-01   1.81604e-02
Si    4.43903e+00   1.48176e+00   1.03823e+01  1.16122e-01   6.40275e-02  -4.89016e-02
Si    5.93122e+00   4.61200e-03   5.92617e+00  1.18395e-02   9.76525e-03   8.85119e-02
Si    8.89432e+00   2.96027e+00   5.93505e+00 -1.07841e-02   7.91003e-02  -1.12739e-02
Si    5.93053e+00   2.97276e+00   8.89759e+00 -4.34219e-02  -5.64243e-02   2.97924e-02
Si    8.89589e+00   1.18556e+01   8.89695e+00  3.61191e-02   2.08791e-02  -8.63548e-02
Si    7.41419e+00   1.49238e+00   7.42134e+00 -3.03444e-02  -1.27033e-01  -4.78359e-02
Si    1.03694e+01   4.44715e+00   7.41959e+00  1.15261e-01  -1.22312e-02  -4.36346e-02
Si    7.41890e+00   4.44519e+00   1.03769e+01 -4.10027e-02   5.80940e-02   9.05116e-02
Si    1.03747e+01   1.47761e+00   1.03752e+01  8.49106e-03   1.10028e-01   5.65710e-02
Si    1.18578e+01   5.92500e+00   5.92656e+00  3.68528e-02   3.95338e-02   8.91417e-02
Si    2.96899e+00   8.89231e+00   5.92594e+00 -2.83002e-02   4.54431e-02   1.28359e-01
Si    8.10959e-03   8.88974e+00   8.89794e+00 -2.87014e-02   3.61906e-02  -3.26781e-03
Si    2.96425e+00   5.92692e+00   8.89660e+00  1.07983e-01  -1.15534e-02   6.23262e-02
Si    1.49018e+00   7.40432e+00   7.42389e+00 -6.89374e-02   3.85225e-02  -1.70885e-01
Si    4.44433e+00   1.03868e+01   7.42197e+00  2.52438e-02  -5.24649e-02  -1.59302e-01
Si    1.48957e+00   1.03768e+01   1.03797e+01 -8.85221e-02   8.83392e-02   3.26375e-02
Si    4.45066e+00   7.41718e+00   1.03815e+01 -3.44396e-02  -9.99292e-02   1.64588e-02
Si    5.93591e+00   5.93582e+00   5.93629e+00  3.06600e-03  -4.52202e-02  -6.35647e-02
Si    8.89197e+00   8.88807e+00   5.93017e+00  6.83428e-02   4.46021e-02  -3.57431e-02
Si    5.92040e+00   8.89848e+00   8.89710e+00  1.40533e-01  -3.23965e-02  -2.80645e-02
Si    8.90300e+00   5.93329e+00   8.90401e+00 -5.28587e-02  -4.74914e-02  -2.72931e-02
Si    7.42193e+00   7.40689e+00   7.42050e+00 -9.88611e-02   8.41606e-02   1.46256e-02
Si    1.03832e+01   1.03697e+01   7.40894e+00 -5.31216e-02   5.06082e-03   7.34507e-02
Si    7.41984e+00   1.03744e+01   1.03706e+01 -7.65906e-02  -8.34987e-03   5.81740e-02
Si    1.03790e+01   7.41420e+00   1.03774e+01  8.62372e-02  -5.64832e-02   6.38608e-02
