64
Lattice="11.014068 0 0 0 11.014068 0 0 0 11.014068 " PBC="1 1 1" Properties=species:S:1:pos:R:3:force:R:3 Energy="-276.804148073"
Si    1.10078e+01   1.10102e+01   1.36815e-03  8.92066e-02   6.04283e-02  -2.36276e-02
Si    2.75051e+00   2.75354e+00   1.10132e+01  6.74990e-02  -4.38107e-02   9.45297e-02
Si    1.10135e+01   2.75474e+00   2.74934e+00  2.80812e-02   6.90784e-02   1.50625e-01
Si    2.74544e+00   1.10062e+01   2.75265e+00  6.65621e-02   1.49457e-01  -5.79693e-02
Si    1.36948e+00   1.37875e+00   1.38044e+00  6.73290e-02  -8.56094e-02  -9.59030e-02
Si    4.12973e+00   4.13019e+00   1.38041e+00 -3.55993e-02   1.49281e-02  -6.72468e-02
Si    1.38328e+00   4.13599e+00   4.13440e+00 -4.90988e-02  -9.55561e-02  -1.40576e-01
Si    4.12272e+00   1.37155e+00   4.12558e+00  7.41861e-02   3.93651e-02   4.48347e-02
Si    5.51312e+00   1.10108e+01   1.10066e+01 -1.00381e-01  -3.59717e-02   1.44220e-01
Si    8.26632e+00   2.75176e+00   1.10033e+01 -6.35971e-02   1.79224e-01   1.52331e-01
Si    5.50557e+00   2.75041e+00   2.75038e+00  2.97317e-02   5.69066e-02   7.94665e-02
Si    8.25658e+00   5.13581e-03   2.76009e+00 -1.07687e-02  -8.88165e-02  -2.25956e-01
Si    6.88459e+00   1.38374e+00   1.36745e+00  3.54898e-02  -1.01903e-01   5.83368e-02
Si    9.64300e+00   4.13424e+00   1.37680e+00 -1.40019e-01  -6.09353e-02  -4.35987e-02
Si    6.88347e+00   4.13846e+00   4.13264e+00 -4.57724e-02  -1.38440e-01  -4.00990e-02
Si    9.63389e+00   1.37422e+00   4.12267e+00  6.19676e-02   1.00629e-01   1.40559e-01
Si    1.10130e+01   5.50650e+00   1.93850e-04 -1.09673e-03   8.08254e-02  -2.70654e-02
Si    2.75712e+00   8.25974e+00   7.50517e-03 -1.02414e-01  -7.76227e-02  -2.96076e-02
Si    1.10113e+01   8.26462e+00   2.75428e+00  6.93289e-02  -4.87386e-02   5.46319e-02
Si    2.74883e+00   5.51367e+00   2.74632e+00  8.65434e-02  -8.92245e-02   1.14862e-01
Si    1.37356e+00   6.88003e+00   1.37921e+00 -4.71361e-02   1.23187e-01  -6.25423e-02
Si    4.12218e+00   9.63288e+00   1.38045e+00  2.05333e-01   1.03904e-01  -6.60426e-02
Si    1.38337e+00   9.64142e+00   4.12752e+00 -1.66764e-01  -9.85264e-02   1.58212e-01
Si    4.13019e+00   6.88779e+00   4.12224e+00 -5.51160e-02  -2.06029e-03   5.02213e-02
Si    5.50687e+00   5.51132e+00   5.26561e-03 -1.08921e-01  -7.68335e-02  -9.83318e-02
Si    8.26633e+00   8.25990e+00   1.10090e+01 -6.88318e-02  -1.10588e-02   1.13112e-02
Si    5.51141e+00   8.25971e+00   2.74945e+00 -6.29009e-02  -5.99028e-02  -8.48301e-02
Si    8.25839e+00   5.51011e+00   2.75153e+00  1.00682e-01  -3.81557e-03   5.85928e-02
Si    6.88476e+00   6.87533e+00   1.37047e+00  5.39597e-02   1.92635e-01   4.29924e-02
Si    9.63844e+00   9.63577e+00   1.37930e+00 -1.21348e-01   6.26789e-02   1.86394e-02
Si    6.88204e+00   9.63050e+00   4.12059e+00 -2.38591e-02   1.29405e-01   2.60359e-01
Si    9.63477e+00   6.89100e+00   4.13772e+00  2.66356e-02  -1.30072e-01  -1.30038e-01
Si    2.16795e-04   7.23883e-03   5.51037e+00  3.77756e-02  -5.68597e-02  -3.43945e-02
Si    2.76295e+00   2.76142e+00   5.50815e+00 -1.47833e-01  -1.48979e-01  -1.95382e-02
Si    4.67282e-03   2.75306e+00   8.25427e+00 -1.19684e-01   1.27790e-01   1.50759e-01
Si    2.74934e+00   6.73735e-03   8.26226e+00  1.20240e-01  -7.91101e-02   8.63276e-02
Si    1.38105e+00   1.38522e+00   6.89415e+00  1.44353e-02  -4.00563e-02  -2.37475e-01
Si    4.12685e+00   4.12580e+00   6.88581e+00  8.01384e-02   1.99201e-01   5.29177e-02
Si    1.37455e+00   4.12924e+00   9.64699e+00  2.08802e-02   4.15636e-02  -1.74335e-01
Si    4.13763e+00   1.37837e+00   9.64015e+00 -1.23424e-01  -2.41786e-02  -2.96847e-02
Si    5.50463e+00   6.80397e-03   5.51560e+00  2.26807e-02  -1.76625e-01  -2.53436e-01
Si    8.25443e+00   2.74592e+00   5.50904e+00  6.96669e-02   1.25277e-01  -1.33654e-01
Si    5.50551e+00   2.75175e+00   8.26010e+00  9.08342e-02   3.67031e-02  -8.96800e-03
Si    8.26666e+00   1.14506e-03   8.25300e+00 -1.07157e-01   1.57690e-02   6.45655e-02
Si    6.88346e+00   1.37503e+00   6.87650e+00 -1.02683e-02   2.85502e-02   1.90182e-01
Si    9.63095e+00   4.13052e+00   6.87989e+00  1.23405e-01  -9.33229e-02  -3.60693e-02
Si    6.88070e+00   4.13676e+00   9.63963e+00  7.63917e-02  -3.08677e-02  -9.79707e-02
Si    9.63629e+00   1.38263e+00   9.63808e+00  1.07778e-01  -1.33900e-01  -1.39634e-01
Si    1.60019e-04   5.50196e+00   5.50175e+00 -3.93333e-02   1.11336e-01   8.90766e-02
Si    2.75053e+00   8.25464e+00   5.51248e+00  1.28533e-01   1.77043e-01  -1.14472e-01
Si    1.10086e+01   8.26379e+00   8.26723e+00  1.55310e-01   9.31973e-02  -2.00493e-01
Si    2.75397e+00   5.51512e+00   8.26830e+00 -1.24674e-01  -1.36553e-01  -1.29226e-01
Si    1.37342e+00   6.89026e+00   6.87841e+00 -6.96009e-02  -1.37199e-01   1.66080e-01
Si    4.13331e+00   9.64095e+00   6.88929e+00 -9.87871e-02  -5.76202e-02   5.71169e-03
Si    1.38390e+00   9.63266e+00   9.64367e+00 -1.02664e-01   8.35639e-02  -2.75860e-02
Si    4.12293e+00   6.88500e+00   9.63873e+00  1.32420e-01   1.47267e-02   1.15291e-01
Si    5.50046e+00   5.51303e+00   5.50344e+00  4.69945e-02  -6.63544e-03   1.24865e-01
Si    8.25639e+00   8.25296e+00   5.51057e+00 -6.76263e-02   1.44374e-01  -7.01488e-02
Si    5.50448e+00   8.25914e+00   8.26987e+00 -5.94377e-02   3.91931e-02  -8.07870e-02
Si    8.26948e+00   5.50874e+00   8.25395e+00 -1.53544e-01   5.35078e-02   1.09134e-01
Si    6.88048e+00   6.89339e+00   6.89162e+00 -3.23284e-02  -1.88779e-01  -6.66772e-02
Si    9.62911e+00   9.63368e+00   6.87726e+00  1.49756e-01   3.62659e-02   4.80550e-02
Si    6.88296e+00   9.63517e+00   9.62918e+00  1.36431e-01   3.56818e-02   5.79689e-02
Si    9.64649e+00   6.89115e+00   9.62782e+00 -1.16219e-01  -1.66813e-01   1.52325e-01
