8
Lattice="5.48531 0 0 0 5.48531 0 0 0 5.48531 " PBC="1 1 1" Properties=species:S:1:pos:R:3:force:R:3 Energy="-34.6479508636"
Si    0.00000e+00   0.00000e+00   0.00000e+00  1.25455e-14   7.77427e-15   7.70725e-15
Si    2.74266e+00   2.74266e+00   0.00000e+00  1.33227e-14   1.33227e-14   7.46625e-15
Si    0.00000e+00   2.74266e+00   2.74266e+00  1.01030e-14   1.58762e-14   1.05810e-14
Si    2.74266e+00   0.00000e+00   2.74266e+00  1.59595e-14   1.01308e-14   1.06026e-14
Si    1.37133e+00   1.37133e+00   1.37133e+00  7.21645e-16   7.02691e-16   6.56657e-16
Si    4.11398e+00   4.11398e+00   1.37133e+00 -2.41338e-14  -2.41670e-14   3.30562e-15
Si    1.37133e+00   4.11398e+00   4.11398e+00 -1.72085e-15  -2.44527e-14  -1.89293e-14
Si    4.11398e+00   1.37133e+00   4.11398e+00 -2.68207e-14   7.13520e-16  -2.13691e-14
