64
Lattice="10.862 0 0 0 10.862 0 0 0 10.862 " PBC="1 1 1" Properties=species:S:1:pos:R:3:force:R:3 Energy="-272.6476"
Si    1.08977e+01  -3.04042e-02   1.07874e+01 -5.04295e-01   9.00679e-02   9.46222e-01
Si    2.69314e+00   2.77519e+00  -6.39892e-02 -1.47579e-01  -5.89774e-01  -8.00631e-04
Si    1.09148e+01   2.70023e+00   2.69021e+00 -7.36423e-01   4.91887e-01  -6.04304e-01
Si    2.70117e+00   5.44685e-02   2.76116e+00 -2.47383e-02   6.23751e-03  -6.63309e-01
Si    1.34934e+00   1.41139e+00   1.23654e+00  4.15217e-01  -8.67414e-01   1.02760e+00
Si    3.97213e+00   4.07849e+00   1.32686e+00  6.56622e-01   2.69348e-01   4.08098e-01
Si    1.35122e+00   4.09140e+00   4.03104e+00  1.11610e+00  -2.72196e-01   6.78689e-01
Si    4.08214e+00   1.35104e+00   4.12241e+00 -2.98442e-01   3.21799e-01  -2.03908e-01
Si    5.34595e+00   1.08017e+01   1.08358e+01 -1.58225e-01   3.24255e-01   1.28138e+00
Si    8.08166e+00   2.66284e+00   1.08468e+01  4.62345e-01  -1.35219e-01  -5.34921e-02
Si    5.32000e+00   2.70668e+00   2.67983e+00  3.91256e-01   9.10710e-01   8.18967e-01
Si    8.12799e+00   1.08237e+01   2.63390e+00 -4.10580e-01   1.35269e+00   5.62541e-01
Si    6.62536e+00   1.39988e+00   1.31535e+00  1.21348e+00  -1.30588e+00   1.28533e-01
Si    9.42328e+00   4.03863e+00   1.35555e+00  1.39425e+00  -1.04063e+00  -5.20463e-01
Si    6.73593e+00   4.09183e+00   4.10975e+00 -3.88236e-01  -1.17336e+00   1.42611e-01
Si    9.56774e+00   1.36738e+00   4.04537e+00 -1.15539e+00  -6.01228e-01  -1.05147e-01
Si    1.07694e+01   5.44936e+00   1.08582e+01  5.94304e-01  -4.39532e-01   4.64197e-01
Si    2.72935e+00   8.20237e+00   4.87503e-02  2.30906e-01  -2.68178e-01   5.96208e-01
Si    3.62298e-02   8.23313e+00   2.65595e+00 -7.98324e-01  -3.34015e-01   4.48924e-01
Si    2.73509e+00   5.48814e+00   2.73486e+00  3.53351e-02  -1.30904e-01   1.58294e-01
Si    1.33413e+00   6.77274e+00   1.37229e+00  1.20353e-01   5.27920e-01  -5.90704e-01
Si    4.15115e+00   9.44021e+00   1.56233e+00 -8.74222e-01   7.32968e-01  -1.57076e+00
Si    1.34992e+00   9.56410e+00   4.10231e+00  8.34727e-03  -3.37531e-01  -4.52477e-01
Si    4.15418e+00   6.82659e+00   4.12642e+00 -1.21144e+00   3.66287e-01  -8.85397e-01
Si    5.39599e+00   5.37137e+00  -1.70924e-02  2.68987e-01  -3.16867e-01   1.90155e-01
Si    8.11175e+00   8.13247e+00  -4.99197e-03 -4.53604e-01  -4.67858e-01  -1.12835e+00
Si    5.59546e+00   8.08003e+00   2.74519e+00 -8.59996e-01  -1.02383e+00  -4.17575e-01
Si    8.23104e+00   5.27079e+00   2.79628e+00 -1.20614e+00   2.41082e+00  -3.78359e-01
Si    6.80812e+00   6.66365e+00   1.26509e+00  8.93545e-01  -6.21338e-02   1.81405e+00
Si    9.41655e+00   9.49921e+00   1.26486e+00  1.66103e+00   1.82563e-01   3.41230e-01
Si    6.84380e+00   9.42432e+00   4.04022e+00  4.20698e-01   1.08914e+00   6.18644e-01
Si    9.58407e+00   6.79840e+00   4.07656e+00 -2.65177e-01  -9.49334e-02  -6.32140e-01
Si   -3.20782e-03   3.06464e-03   5.44944e+00 -8.46742e-02   2.54072e-01   6.16442e-01
Si    2.77139e+00   2.74720e+00   5.49190e+00 -8.62860e-01   3.55172e-01  -6.07139e-01
Si    1.08592e+01   2.80170e+00   8.12561e+00  5.47523e-01  -1.65000e+00   1.00847e+00
Si    2.80610e+00   1.70038e-02   8.02871e+00 -6.24319e-01  -2.45525e-01   1.26035e+00
Si    1.39241e+00   1.38454e+00   6.82881e+00 -5.72703e-01   2.45681e-01  -7.33410e-01
Si    4.01560e+00   4.19087e+00   6.85738e+00  6.71511e-02  -5.45400e-01   5.40137e-01
Si    1.33746e+00   4.12317e+00   9.50995e+00 -7.04514e-01   1.55757e-01   3.28604e-01
Si    4.03112e+00   1.32551e+00   9.52702e+00  1.05042e-01   5.28958e-01  -6.11745e-01
Si    5.44462e+00  -4.23781e-02   5.37942e+00  9.19970e-01   1.56601e-01   8.20295e-02
Si    8.13293e+00   2.66697e+00   5.46254e+00  8.30583e-01   1.02940e+00  -6.31404e-01
Si    5.37136e+00   2.73979e+00   8.18153e+00  3.64168e-01  -3.61687e-01  -5.87472e-01
Si    8.12189e+00  -9.94162e-02   8.13930e+00  2.66796e-01   1.21868e+00   8.69002e-02
Si    6.79344e+00   1.35133e+00   6.78406e+00 -8.04161e-01  -5.55555e-01   6.43688e-01
Si    9.60166e+00   4.08859e+00   6.77895e+00 -1.31737e+00   3.96854e-01  -9.98186e-01
Si    6.79115e+00   4.05270e+00   9.49831e+00 -3.98302e-01  -2.13061e-01   5.66027e-02
Si    9.53296e+00   1.28777e+00   9.50756e+00 -7.55147e-01   9.77496e-01  -9.91701e-01
Si    1.09682e+01   5.48818e+00   5.41521e+00 -5.33765e-01  -2.88902e-01   4.94428e-01
Si    2.67484e+00   8.16291e+00   5.42830e+00  1.00093e+00   2.86126e-01  -2.95858e-01
Si    1.09555e+01   8.17790e+00   8.10801e+00 -1.31301e+00  -9.58097e-02   1.35258e+00
Si    2.69899e+00   5.52720e+00   8.31711e+00  1.34078e-01   1.45249e-01  -1.49626e+00
Si    1.39342e+00   6.86024e+00   6.82086e+00  5.35822e-01  -1.09490e+00  -4.28380e-02
Si    4.11816e+00   9.49659e+00   6.72289e+00 -4.22302e-01  -3.29679e-01   3.25674e-02
Si    1.42149e+00   9.56742e+00   9.48030e+00  6.06144e-01  -5.51220e-01  -6.83086e-01
Si    4.12645e+00   6.81842e+00   9.60766e+00 -6.41285e-01   5.83901e-01  -3.93663e-01
Si    5.35420e+00   5.47122e+00   5.46584e+00  1.27881e+00  -4.63271e-01   4.14807e-01
Si    8.13603e+00   8.06748e+00   5.42646e+00  6.39827e-01   3.79284e-01   1.20988e-01
Si    5.38743e+00   8.15548e+00   8.14551e+00  6.59846e-01  -1.04807e-01   1.85388e-01
Si    8.16212e+00   5.36084e+00   8.15952e+00 -1.30527e-01   5.27856e-01  -7.44780e-01
Si    6.78059e+00   6.78098e+00   6.80933e+00 -1.28257e-01  -4.73032e-01   3.61188e-01
Si    9.49549e+00   9.43873e+00   6.80650e+00  1.45970e-01   2.44326e-01  -7.56702e-01
Si    6.72527e+00   9.54124e+00   9.51855e+00  3.56010e-01  -1.26871e+00  -2.22191e-01
Si    9.47496e+00   6.76253e+00   9.46670e+00  4.44547e-01   1.14094e+00  -2.07899e-01
