64
Lattice="10.862 0 0 0 10.862 0 0 0 10.862 " PBC="1 1 1" Properties=species:S:1:pos:R:3:force:R:3 Energy="-273.08984"
Si    1.07854e+01   5.26058e-02   1.09391e+01 -5.01639e-01   5.38961e-01  -1.01819e+00
Si    2.73458e+00   2.74752e+00   2.93756e-02 -5.11502e-02  -2.11567e-01   2.52128e-01
Si    1.08100e+01   2.76786e+00   2.61831e+00 -2.94823e-01  -2.84902e-01   8.15502e-01
Si    2.71891e+00   7.51721e-02   2.70619e+00  4.09111e-01  -1.28743e-01   1.02963e-01
Si    1.32345e+00   1.41369e+00   1.39156e+00  4.94459e-01  -1.72284e-01  -6.83333e-01
Si    4.14881e+00   4.07128e+00   1.36859e+00 -4.23240e-01  -4.80520e-01   6.85369e-01
Si    1.23464e+00   4.07458e+00   4.06751e+00  1.18810e+00   3.74829e-01  -3.17127e-02
Si    4.14769e+00   1.37949e+00   4.09748e+00 -9.07834e-01  -8.16966e-01   2.92732e-01
Si    5.45979e+00   1.07491e+01   1.08921e+01 -3.93972e-01   7.43007e-01  -4.48707e-01
Si    8.09249e+00   2.63576e+00   1.08399e+01 -1.58109e-01  -9.98413e-02   5.63478e-03
Si    5.49462e+00   2.59972e+00   2.70477e+00  1.35709e-02   9.60415e-01  -3.48034e-01
Si    8.17799e+00   1.07160e+01   2.77900e+00 -3.52272e-01   1.14069e+00  -5.32709e-01
Si    6.83402e+00   1.22154e+00   1.35995e+00  9.72467e-02  -1.13219e-01   4.03528e-01
Si    9.42942e+00   4.02442e+00   1.25630e+00  6.12410e-02   1.05374e+00   6.85694e-01
Si    6.76527e+00   3.98983e+00   4.12093e+00  1.02559e+00   1.87077e-01  -7.13895e-01
Si    9.51286e+00   1.35361e+00   3.99407e+00  9.64521e-02   1.95289e-02  -1.68019e-01
Si    1.08724e+01   5.44371e+00   1.08915e+01 -1.11957e+00  -8.74304e-02  -2.59475e-01
Si    2.64128e+00   8.18770e+00  -4.84442e-02 -5.45618e-01  -4.58232e-01   1.04864e+00
Si    9.66083e-02   8.11516e+00   2.71574e+00 -8.54967e-01   3.29908e-01  -1.84292e-02
Si    2.78094e+00   5.42086e+00   2.78908e+00 -5.78618e-01  -7.51014e-01  -3.15786e-01
Si    1.36867e+00   6.66699e+00   1.39900e+00  9.18322e-01   1.48585e+00  -3.45575e-01
Si    4.01256e+00   9.47470e+00   1.35778e+00  5.09216e-02   2.05714e-01   2.09355e-01
Si    1.39386e+00   9.57100e+00   4.04894e+00  1.74257e-01  -4.88317e-01  -8.77046e-01
Si    4.06772e+00   6.83443e+00   4.10567e+00  5.12202e-01  -8.87731e-01   6.14271e-01
Si    5.42718e+00   5.40041e+00  -2.10773e-02 -1.07302e-01   7.41267e-01   3.94262e-01
Si    8.14319e+00   8.07056e+00   9.59372e-03 -3.43504e-01   6.83838e-01  -5.92947e-02
Si    5.36254e+00   8.15114e+00   2.76553e+00  7.57817e-01   3.65622e-03  -8.00715e-01
Si    8.14188e+00   5.42174e+00   2.74757e+00 -2.93568e-01  -8.93094e-01  -3.34477e-01
Si    6.74544e+00   6.74853e+00   1.40176e+00 -5.75170e-02   2.95585e-01  -1.16815e-01
Si    9.48697e+00   9.45391e+00   1.37051e+00  6.28357e-01  -6.80686e-01   7.61621e-02
Si    6.78450e+00   9.45550e+00   4.11179e+00  1.42865e-01  -1.03131e+00   7.93024e-03
Si    9.50837e+00   6.79711e+00   4.05169e+00  4.51332e-01  -1.51258e-01  -5.05021e-02
Si    5.81519e-02   4.80649e-02   5.29231e+00 -4.73488e-01   4.55065e-01   1.42409e+00
Si    2.72801e+00   2.78288e+00   5.41161e+00  1.41882e-01   9.29498e-03   4.12943e-01
Si    1.07691e+01   2.73218e+00   8.18237e+00  4.83241e-01   1.54232e+00  -8.15785e-01
Si    2.64272e+00   1.58255e-01   8.16454e+00  6.42348e-01  -9.88894e-01   5.53054e-02
Si    1.27879e+00   1.46239e+00   6.78810e+00  4.64821e-01  -1.59379e-01  -7.06353e-01
Si    4.20702e+00   4.11310e+00   6.80731e+00 -1.99467e+00  -3.05040e-02  -3.58189e-01
Si    1.30943e+00   4.08617e+00   9.59766e+00  4.76161e-01  -4.29654e-01  -1.40082e+00
Si    4.12280e+00   1.37783e+00   9.55927e+00 -3.73569e-01  -2.45904e-01  -2.93802e-03
Si    5.41928e+00  -1.37087e-01   5.43692e+00  2.38220e-01   1.91154e+00   9.60832e-02
Si    8.22113e+00   2.66476e+00   5.42570e+00 -9.25265e-01   1.71919e-01  -2.28199e-01
Si    5.41505e+00   2.74142e+00   8.15736e+00  1.04442e+00  -1.01058e+00   8.03665e-02
Si    8.19992e+00  -1.84803e-03   8.02840e+00 -7.79691e-01  -5.57914e-01   2.33107e-01
Si    6.78390e+00   1.33191e+00   6.74921e+00 -3.50236e-01   9.60878e-02   2.97951e-02
Si    9.46109e+00   4.15716e+00   6.70824e+00  1.89911e-01  -1.56396e+00   1.61728e+00
Si    6.76549e+00   4.02490e+00   9.55906e+00  4.59661e-01   4.43543e-01  -8.80450e-01
Si    9.39731e+00   1.39201e+00   9.38361e+00  8.63407e-01  -9.75337e-01   1.78587e+00
Si    1.07995e+01   5.44607e+00   5.46243e+00  8.17932e-01   5.82867e-01  -1.03347e+00
Si    2.71622e+00   8.22325e+00   5.36412e+00 -3.24893e-02  -5.78683e-01   1.44921e+00
Si    1.09132e+01   8.32550e+00   8.12264e+00 -1.16574e-04  -2.36468e+00  -3.80169e-01
Si    2.68649e+00   5.40688e+00   8.12869e+00  7.62533e-01  -1.34837e-01   8.95386e-01
Si    1.39831e+00   6.73891e+00   6.75548e+00 -6.47108e-01   1.80067e+00   1.11816e-01
Si    4.05393e+00   9.53762e+00   6.83278e+00 -1.06119e+00  -5.91666e-02   2.67282e-01
Si    1.27320e+00   9.62673e+00   9.53083e+00  9.63557e-01   4.45337e-01   1.65593e-01
Si    4.02555e+00   6.82687e+00   9.55778e+00  2.70491e-01  -5.94280e-01  -1.05417e+00
Si    5.52139e+00   5.42258e+00   5.44786e+00 -6.56526e-01   7.13022e-01  -3.57762e-01
Si    8.17752e+00   8.07179e+00   5.44195e+00  2.98052e-02   9.19463e-01   4.95317e-02
Si    5.41471e+00   8.17633e+00   8.16585e+00  3.44172e-01  -7.93724e-01  -1.69975e-01
Si    8.20271e+00   5.40060e+00   8.20332e+00 -6.37840e-01   1.72121e-01   1.71792e-01
Si    6.86019e+00   6.74050e+00   6.82372e+00 -6.02787e-01   5.66131e-01   5.90990e-01
Si    9.59234e+00   9.53256e+00   6.69034e+00 -5.59325e-01   2.28911e-01  -5.01166e-01
Si    6.83358e+00   9.51379e+00   9.46605e+00  3.95150e-01  -4.41573e-01   8.33679e-02
Si    9.55701e+00   6.84736e+00   9.48327e+00  4.68448e-01  -1.56164e-01  -1.01818e-01
