64
Lattice="10.862 0 0 0 10.862 0 0 0 10.862 " PBC="1 1 1" Properties=species:S:1:pos:R:3:force:R:3 Energy="-272.57669"
Si    1.07829e+01  -3.58814e-03   1.08539e+01  2.48564e-01  -1.98998e-02   4.03261e-01
Si    2.71201e+00   2.76125e+00   2.64329e-02 -1.52215e-01   5.44808e-02   4.84856e-02
Si    1.08421e+01   2.79655e+00   2.62724e+00 -2.29539e-01  -6.85475e-01   1.34485e+00
Si    2.73758e+00   1.02864e-01   2.72058e+00  1.43178e-02  -4.59873e-01  -1.16743e+00
Si    1.28021e+00   1.42718e+00   1.31401e+00  7.37989e-01  -6.96543e-01   1.20709e-01
Si    4.08159e+00   4.03850e+00   1.41671e+00 -1.01830e+00   1.11134e+00   4.60195e-02
Si    1.26646e+00   4.12118e+00   4.10396e+00  8.21515e-01  -4.11056e-02  -1.47526e-01
Si    4.09921e+00   1.29829e+00   4.17136e+00 -4.65829e-01   1.72218e+00  -1.03373e+00
Si    5.42127e+00   1.07702e+01   1.08024e+01  4.89836e-01   1.62329e-01   8.55463e-02
Si    8.08308e+00   2.69111e+00   1.08367e+01  3.33692e-01   9.43764e-02   6.18015e-02
Si    5.40433e+00   2.67642e+00   2.65448e+00  5.10550e-01  -1.69184e+00   6.53036e-01
Si    8.15534e+00   1.07988e+01   2.66909e+00  1.26439e-01   2.01786e-02   3.04682e-01
Si    6.78899e+00   1.24204e+00   1.25827e+00 -3.89984e-01   6.89572e-01   9.90347e-01
Si    9.46134e+00   4.07063e+00   1.32862e+00 -5.84399e-01   4.12039e-01  -4.81435e-01
Si    6.73847e+00   3.97762e+00   4.03251e+00  6.24010e-01   1.50279e+00  -2.72259e-01
Si    9.56238e+00   1.30242e+00   4.02891e+00 -4.24277e-01   6.43606e-01  -2.28331e-02
Si    1.08419e+01   5.39864e+00   1.08266e+01  6.17559e-01   6.36977e-01   1.33209e+00
Si    2.70928e+00   8.12793e+00  -1.26517e-01 -3.46023e-01   9.81190e-01   8.04382e-01
Si    8.09318e-02   8.12893e+00   2.72535e+00  6.52730e-01   2.60592e-01   7.53990e-02
Si    2.74939e+00   5.49925e+00   2.85792e+00 -2.43968e-01  -7.03484e-01  -1.21119e+00
Si    1.43096e+00   6.79278e+00   1.32063e+00 -5.28453e-01  -5.54180e-01   2.04574e-01
Si    4.06457e+00   9.49508e+00   1.30639e+00 -1.07986e+00   2.08072e-01   2.49028e-01
Si    1.49821e+00   9.54240e+00   4.04717e+00 -4.64606e-01  -9.68155e-01   3.02063e-02
Si    4.09378e+00   6.86726e+00   4.17168e+00  2.84846e-01  -5.81146e-01  -2.23839e-01
Si    5.37778e+00   5.36442e+00  -7.72856e-03 -7.33248e-02   1.07183e+00   1.06546e+00
Si    8.10178e+00   8.02578e+00  -5.81899e-02  9.52925e-01   8.59521e-01   8.40609e-01
Si    5.31958e+00   8.19068e+00   2.75721e+00  1.10159e+00  -1.17140e-01  -4.88381e-01
Si    8.11432e+00   5.46377e+00   2.69234e+00  1.04993e-01  -4.18146e-01   6.26281e-01
Si    6.70231e+00   6.81279e+00   1.38903e+00 -3.29381e-01  -4.62647e-01  -3.72587e-01
Si    9.54669e+00   9.39467e+00   1.38162e+00 -9.24644e-01   1.27307e-01  -9.57530e-01
Si    6.75848e+00   9.50085e+00   4.07400e+00  6.82656e-01  -7.10165e-01   4.09669e-01
Si    9.55482e+00   6.82941e+00   4.06807e+00 -4.29805e-01  -9.30821e-01   1.21291e-01
Si    9.56877e-02  -7.22379e-02   5.38041e+00 -6.84913e-01   6.63628e-01   3.43087e-03
Si    2.70316e+00   2.78904e+00   5.44974e+00  7.26372e-01   1.59690e-02  -8.43977e-01
Si    1.09034e+01   2.73205e+00   8.18750e+00 -5.02649e-01   5.80826e-02  -4.03308e-01
Si    2.67663e+00   1.23934e-01   8.21624e+00 -2.72835e-02   3.04247e-01  -5.47474e-01
Si    1.36856e+00   1.40924e+00   6.66881e+00 -3.60791e-01  -3.25184e-01   1.79802e+00
Si    4.12171e+00   4.10769e+00   6.80507e+00  3.67162e-01  -2.80844e-01  -5.43001e-01
Si    1.40613e+00   4.18216e+00   9.53422e+00 -2.27823e-01  -1.68135e+00  -5.44003e-01
Si    4.09627e+00   1.38075e+00   9.60631e+00 -9.63043e-01  -3.22675e-01  -2.41886e-01
Si    5.39519e+00  -6.32340e-02   5.44938e+00 -8.20011e-02  -3.74529e-01   8.31044e-01
Si    8.13609e+00   2.73744e+00   5.40047e+00  3.61832e-03  -1.37029e+00   3.72400e-01
Si    5.36189e+00   2.66953e+00   8.22752e+00  6.15946e-01   8.30577e-01  -8.01378e-01
Si    8.15853e+00   7.91150e-03   8.06408e+00 -3.07523e-01  -4.15106e-01  -7.26068e-02
Si    6.65976e+00   1.33525e+00   6.78277e+00  1.45486e+00   5.98123e-01  -1.06912e-01
Si    9.45846e+00   4.10089e+00   6.80887e+00  6.53029e-01  -7.47058e-01   1.56047e-01
Si    6.71061e+00   4.08065e+00   9.54544e+00  8.17178e-01  -5.85087e-01  -8.84004e-01
Si    9.43655e+00   1.31780e+00   9.49322e+00  5.57312e-01   8.56736e-01  -3.39569e-01
Si    1.08525e+01   5.46536e+00   5.51454e+00 -3.32512e-01   2.01183e-01  -7.18601e-01
Si    2.81394e+00   8.20002e+00   5.49609e+00 -8.03678e-01   6.24586e-01   1.44425e-01
Si    1.09059e+01   8.17125e+00   8.12335e+00 -1.60283e-01  -3.92535e-01   1.39420e-01
Si    2.74205e+00   5.39669e+00   8.10915e+00 -2.65582e-01   1.15395e+00  -6.43275e-02
Si    1.40784e+00   6.83601e+00   6.75403e+00  1.40622e-01  -3.34518e-01   7.05854e-01
Si    4.02835e+00   9.56086e+00   6.97107e+00  7.14747e-01  -2.14115e-01  -1.00729e+00
Si    1.29966e+00   9.60704e+00   9.45501e+00  4.54459e-01  -8.06619e-01   6.12552e-01
Si    4.05325e+00   6.73572e+00   9.49645e+00  4.98061e-01  -3.59781e-03  -4.41322e-01
Si    5.52927e+00   5.49853e+00   5.40174e+00 -6.51078e-01  -1.11871e+00   4.64646e-01
Si    8.17368e+00   8.06755e+00   5.48958e+00 -1.01573e-01   1.29798e+00  -1.17931e+00
Si    5.44159e+00   8.12992e+00   8.19245e+00  2.67662e-01  -4.88828e-01  -4.23358e-01
Si    8.13553e+00   5.41027e+00   8.16641e+00  2.64123e-01  -3.13199e-01   9.68126e-01
Si    6.88092e+00   6.73890e+00   6.82349e+00 -1.30045e+00   8.09170e-01   2.66286e-01
Si    9.55987e+00   9.46848e+00   6.74969e+00 -2.57898e-01   4.04829e-01   4.72538e-02
Si    6.85250e+00   9.47971e+00   9.46233e+00 -2.49442e-01  -3.61232e-03  -3.22175e-02
Si    9.58139e+00   6.74571e+00   9.49439e+00 -8.76234e-01   4.41035e-01  -7.53934e-01
