64
Lattice="10.862 0 0 0 10.862 0 0 0 10.862 " PBC="1 1 1" Properties=species:S:1:pos:R:3:force:R:3 Energy="-272.90692"
Si    1.08476e+01   2.10534e-02   1.09333e+01 -6.81940e-01  -9.53400e-01  -2.86443e-01
Si    2.71090e+00   2.63680e+00  -6.89920e-03 -5.12344e-02   1.09151e+00   5.04508e-01
Si    1.08689e+01   2.71792e+00   2.75018e+00 -2.06246e-02  -1.81434e-02  -3.90141e-01
Si    2.72389e+00   8.12317e-03   2.65006e+00 -7.41806e-02  -1.11269e+00   7.01674e-01
Si    1.33117e+00   1.31785e+00   1.35933e+00  2.64364e-01   9.63516e-01   3.98991e-01
Si    4.12333e+00   4.01087e+00   1.38358e+00 -3.51572e-01   5.58821e-01  -3.97088e-01
Si    1.35635e+00   4.10006e+00   4.08470e+00  2.47316e-01  -5.32780e-01   3.41223e-01
Si    4.13252e+00   1.30082e+00   4.02459e+00 -6.78327e-01   3.13773e-01   2.69102e-01
Si    5.47512e+00   1.09298e+01   1.08912e+01  1.44596e-01  -1.08302e+00  -9.89096e-01
Si    8.23799e+00   2.75173e+00   1.08312e+01 -4.81705e-01   4.69269e-01   3.54609e-01
Si    5.51141e+00   2.72081e+00   2.75447e+00  3.80968e-01  -9.06017e-01  -1.01345e+00
Si    8.07328e+00   1.08098e+01   2.79631e+00  1.79630e+00   3.56644e-01  -3.58634e-01
Si    6.95651e+00   1.33694e+00   1.33713e+00 -1.42124e+00   8.89160e-01   4.59831e-01
Si    9.57567e+00   4.11762e+00   1.34747e+00 -2.34897e-01   5.29195e-01  -1.17523e-01
Si    6.86328e+00   4.08826e+00   4.02227e+00 -2.97960e-01   1.61832e-01   6.01624e-01
Si    9.49244e+00   1.36010e+00   4.10418e+00  4.63454e-01  -7.35871e-01  -4.17274e-01
Si    1.09751e+01   5.43223e+00   1.07447e+01 -1.05837e+00  -6.25298e-01   7.97648e-01
Si    2.70928e+00   8.11824e+00  -9.62115e-02 -8.37336e-01  -2.06599e-01   2.35223e-01
Si    1.22868e-02   8.07033e+00   2.74119e+00  1.40453e+00  -5.29183e-02  -2.91116e-01
Si    2.79981e+00   5.45235e+00   2.76081e+00 -7.31023e-01  -1.08237e+00  -8.28378e-01
Si    1.39964e+00   6.67212e+00   1.30478e+00  4.07327e-01   1.47519e+00   6.60120e-01
Si    4.02783e+00   9.47627e+00   1.24649e+00  3.29289e-01   7.64308e-01   5.86345e-01
Si    1.39193e+00   9.44704e+00   4.12704e+00 -1.19051e-01   5.99565e-01  -8.12601e-01
Si    4.07968e+00   6.81425e+00   4.06412e+00  2.97305e-01  -3.10674e-01   4.10509e-01
Si    5.41648e+00   5.48760e+00  -6.36498e-03 -7.02764e-01   2.67224e-02   7.82015e-02
Si    8.13905e+00   8.20649e+00   1.29993e-01  7.44576e-01  -2.36280e-01  -1.31414e+00
Si    5.32857e+00   8.20003e+00   2.72517e+00  5.88168e-01   4.16412e-01  -3.05448e-01
Si    8.08125e+00   5.53786e+00   2.65479e+00  5.10860e-01  -7.34587e-01  -6.82103e-01
Si    6.70087e+00   6.91488e+00   1.32749e+00 -1.15595e-01  -7.85580e-01   7.91014e-01
Si    9.56818e+00   9.44948e+00   1.48039e+00 -8.83001e-01   1.27686e+00  -3.21008e-01
Si    6.66726e+00   9.58694e+00   4.10861e+00 -3.16279e-01  -1.02378e+00  -6.44961e-02
Si    9.41973e+00   6.84791e+00   3.99780e+00 -2.50239e-01  -2.46742e-01   2.05300e+00
Si    3.36138e-02   1.47274e-02   5.47076e+00  2.90991e-01  -8.69993e-03  -1.24640e+00
Si    2.64381e+00   2.53777e+00   5.40710e+00  1.23261e+00   2.04979e+00  -5.14204e-01
Si    1.08564e+01   2.77901e+00   8.12822e+00  4.98998e-01  -1.30601e+00   3.70304e-01
Si    2.66735e+00  -1.14030e-02   8.20886e+00 -2.42222e-02  -3.27446e-01   3.22327e-01
Si    1.37994e+00   1.31742e+00   6.81649e+00 -1.09600e+00   1.71048e-01   7.68896e-01
Si    4.00114e+00   4.05293e+00   6.77297e+00  7.11912e-01  -1.16313e+00  -8.65776e-01
Si    1.43445e+00   4.05183e+00   9.44065e+00 -5.37200e-02  -3.45018e-01   4.77923e-01
Si    4.06738e+00   1.38607e+00   9.50610e+00  3.75513e-01  -8.73737e-01  -2.93683e-02
Si    5.35147e+00  -1.72485e-02   5.49857e+00  3.34601e-01   6.62251e-01   2.47123e-01
Si    8.18111e+00   2.69871e+00   5.40349e+00 -7.41681e-01   6.07295e-01   8.05443e-01
Si    5.42375e+00   2.71620e+00   8.15875e+00  2.13828e-01   9.89577e-01   3.85623e-02
Si    8.22892e+00   7.49287e-02   8.14073e+00 -4.27006e-01  -1.51716e+00  -3.16700e-01
Si    6.79175e+00   1.37801e+00   6.80291e+00 -6.41362e-02  -1.94535e-01  -3.22678e-01
Si    9.42361e+00   4.06191e+00   6.88696e+00  8.01011e-02   6.59855e-01  -9.87935e-01
Si    6.79278e+00   4.16831e+00   9.55021e+00 -3.55475e-02  -1.20339e+00  -3.41227e-01
Si    9.54200e+00   1.36426e+00   9.53421e+00  5.88872e-01   5.28453e-01  -3.69374e-01
Si    1.07773e+01   5.39919e+00   5.44417e+00 -2.32691e-01   5.13301e-01  -1.87475e-01
Si    2.73560e+00   8.06885e+00   5.44722e+00 -5.64711e-01   3.00436e-01   5.17964e-01
Si    1.08774e+01   8.16394e+00   8.08021e+00 -8.35759e-01  -7.24824e-01   4.11240e-01
Si    2.77380e+00   5.40065e+00   8.14451e+00 -9.35980e-01   2.46823e-01  -5.40399e-01
Si    1.34005e+00   6.72193e+00   6.81670e+00  2.48421e-01  -3.56366e-02  -5.12259e-01
Si    3.98922e+00   9.49479e+00   6.82775e+00  2.72115e-01  -1.69389e-01  -1.64372e-01
Si    1.21041e+00   9.47334e+00   9.51983e+00  1.55016e+00   6.24310e-01   1.41127e-01
Si    4.05772e+00   6.80963e+00   9.39026e+00  8.40864e-01  -1.24398e-01   9.00839e-01
Si    5.39942e+00   5.37578e+00   5.36241e+00  4.33814e-01   1.76843e-01   6.31295e-01
Si    8.00998e+00   8.25657e+00   5.46327e+00  1.21602e+00  -1.08385e+00  -8.46566e-01
Si    5.44443e+00   8.13124e+00   8.05201e+00 -1.12486e-01   1.66727e-01   6.55173e-01
Si    8.13721e+00   5.51875e+00   8.23254e+00  2.77789e-01  -3.45623e-01  -3.03943e-01
Si    6.78950e+00   6.73533e+00   6.77635e+00 -4.76568e-01   1.72152e-01  -5.54121e-01
Si    9.58091e+00   9.50587e+00   6.69244e+00 -1.44246e+00   2.98717e-01   1.35379e+00
Si    6.83688e+00   9.43275e+00   9.46836e+00 -2.52038e-01   1.58748e+00   2.03097e-01
Si    9.53235e+00   6.85241e+00   9.57158e+00 -1.43312e-01   4.21746e-01  -3.96995e-01
