64
Lattice="10.862 0 0 0 10.862 0 0 0 10.862 " PBC="1 1 1" Properties=species:S:1:pos:R:3:force:R:3 Energy="-271.81378"
Si    1.10464e+01  -4.97755e-02   1.08054e+01 -1.44502e+00   1.17799e-01   7.27643e-01
Si    2.71350e+00   2.72791e+00  -7.35646e-03  8.07057e-01  -7.44558e-02  -1.41621e+00
Si    1.09113e+01   2.68426e+00   2.74481e+00  3.89928e-02  -7.01458e-02  -6.11772e-01
Si    2.75210e+00  -5.24143e-02   2.70817e+00 -9.46979e-01   4.57652e-02   3.72862e-01
Si    1.45654e+00   1.35029e+00   1.29697e+00 -7.12254e-01  -3.17613e-01   1.22986e+00
Si    4.06437e+00   4.11553e+00   1.30385e+00  1.50193e-01   2.97497e-02   5.82371e-01
Si    1.49677e+00   4.00507e+00   3.99276e+00 -6.75338e-01   1.36204e-01   1.43851e+00
Si    4.03320e+00   1.31807e+00   4.08196e+00  4.67352e-01   4.52699e-02  -3.57257e-02
Si    5.32263e+00   1.08886e+01   1.08958e+01  3.19723e-01  -3.09152e-01  -6.66764e-01
Si    8.19733e+00   2.79567e+00   1.09099e+01 -1.43061e-01  -1.19975e-01  -8.27170e-01
Si    5.36449e+00   2.70724e+00   2.74795e+00 -2.35175e-01   4.50503e-01  -8.26377e-01
Si    8.12089e+00   1.09068e+01   2.67395e+00  7.65736e-01   1.34980e+00   1.18188e-01
Si    6.69240e+00   1.44385e+00   1.28448e+00  8.59852e-01  -4.42815e-01   8.35219e-01
Si    9.59636e+00   4.13950e+00   1.39393e+00 -4.96458e-01  -4.55945e-01  -5.65378e-02
Si    6.71754e+00   4.13475e+00   3.98641e+00  5.52748e-01  -7.64015e-01   1.30025e+00
Si    9.47943e+00   1.47384e+00   4.20837e+00  1.23120e-01  -1.47911e+00  -1.49852e+00
Si    1.08474e+01   5.49008e+00   1.08128e+01  1.63958e+00  -1.27917e+00   5.99306e-01
Si    2.72586e+00   8.13358e+00   4.68433e-02  9.83989e-01  -5.52995e-01   1.25400e-01
Si   -4.79828e-02   8.10265e+00   2.66688e+00 -4.58804e-01   2.21040e-01   1.42741e+00
Si    2.71889e+00   5.49037e+00   2.70454e+00  4.39174e-01  -5.60214e-02  -5.11206e-01
Si    1.30552e+00   6.85286e+00   1.37521e+00  6.66549e-01  -1.10837e+00  -7.39023e-01
Si    4.11263e+00   9.45005e+00   1.43670e+00 -2.04372e-01  -6.82356e-02  -6.81447e-01
Si    1.25662e+00   9.47815e+00   4.04730e+00  4.58219e-01   5.35297e-01   8.08462e-01
Si    4.12995e+00   6.80177e+00   4.07032e+00 -9.01994e-01  -2.23778e-01  -9.22279e-02
Si    5.41584e+00   5.51591e+00  -3.84214e-02  6.09733e-01  -1.23044e+00   1.53702e-01
Si    8.11144e+00   8.16288e+00   3.07843e-02  8.62244e-01   2.39659e-01  -1.66620e-01
Si    5.49399e+00   8.07920e+00   2.71478e+00  1.90300e-02   1.07055e+00   4.21637e-01
Si    8.07740e+00   5.44594e+00   2.63747e+00  9.33863e-01  -1.12928e-01   5.20738e-01
Si    6.77989e+00   6.81375e+00   1.32099e+00 -7.28896e-02  -2.77594e-01  -1.48529e-01
Si    9.54869e+00   9.52286e+00   1.38788e+00 -3.07591e-01   4.64857e-01  -1.23080e+00
Si    6.85566e+00   9.53669e+00   4.00632e+00 -1.31605e+00   9.18958e-02   9.52334e-01
Si    9.49656e+00   6.69379e+00   4.07631e+00 -2.91364e-01   8.34153e-01  -1.24230e-01
Si   -6.69866e-02   5.46043e-02   5.57396e+00 -2.99133e-02  -1.22162e+00  -9.63110e-01
Si    2.75340e+00   2.61613e+00   5.49184e+00 -3.13144e-01   1.06775e+00  -8.34359e-01
Si    1.09163e+01   2.66660e+00   8.13263e+00 -6.66196e-01   6.13840e-01   4.25331e-01
Si    2.65547e+00  -1.22440e-01   8.06603e+00  7.98791e-01   9.28212e-01  -4.57017e-02
Si    1.39337e+00   1.35893e+00   6.82205e+00 -5.19899e-01  -7.71858e-01  -9.68916e-02
Si    4.01524e+00   4.02770e+00   6.84564e+00  1.45437e+00  -8.89803e-02  -8.46490e-01
Si    1.40765e+00   4.06047e+00   9.41063e+00 -8.38578e-01   3.67545e-01   1.38225e+00
Si    4.00174e+00   1.27178e+00   9.36593e+00  3.65855e-01   8.39353e-01   1.10420e+00
Si    5.41766e+00   6.22042e-02   5.45473e+00  9.65728e-01  -6.35473e-01  -9.45252e-01
Si    8.12013e+00   2.77436e+00   5.48452e+00 -5.22521e-01   1.45513e+00  -4.84309e-01
Si    5.50213e+00   2.66538e+00   8.11792e+00 -1.34051e+00   1.18031e+00   1.01365e+00
Si    8.17975e+00  -2.38283e-02   8.23924e+00 -1.03468e+00   6.47350e-01  -4.78538e-01
Si    6.80131e+00   1.43339e+00   6.78642e+00  8.52141e-01  -1.97355e+00   2.81568e-01
Si    9.48069e+00   4.08741e+00   6.89864e+00  9.04375e-01  -3.41817e-01  -1.25755e+00
Si    6.82308e+00   4.15552e+00   9.45164e+00 -1.21399e+00  -1.71870e+00   1.68371e+00
Si    9.57962e+00   1.35418e+00   9.55093e+00 -5.72314e-02  -4.68186e-02   2.44579e-01
Si    1.09284e+01   5.35861e+00   5.40089e+00 -2.52167e-01  -1.97352e-01   5.02869e-01
Si    2.69767e+00   8.09400e+00   5.40919e+00 -4.04009e-01   6.21191e-01  -5.07748e-01
Si    1.08440e+01   8.13875e+00   8.16935e+00  2.48065e-01  -4.94002e-01   9.96200e-01
Si    2.73879e+00   5.41977e+00   8.12625e+00 -4.48361e-01   5.95300e-01   1.66070e-02
Si    1.33477e+00   6.80837e+00   6.82049e+00  2.08930e-01  -7.70401e-01  -5.44703e-01
Si    4.02787e+00   9.52939e+00   6.67827e+00  5.82686e-01  -8.02596e-01   8.50771e-01
Si    1.50490e+00   9.43338e+00   9.50743e+00 -1.73556e+00  -3.46927e-01  -5.33921e-01
Si    4.07101e+00   6.75637e+00   9.49202e+00 -4.49350e-01   1.27218e+00  -1.96116e-01
Si    5.37697e+00   5.42935e+00   5.42736e+00  1.79800e-02  -5.55279e-01   3.81458e-01
Si    8.15161e+00   8.20141e+00   5.41959e+00 -3.59413e-01  -1.58449e+00  -4.96870e-01
Si    5.40357e+00   8.22579e+00   8.17634e+00 -5.37967e-01  -7.35298e-01  -9.82190e-01
Si    8.10558e+00   5.40052e+00   8.18575e+00  5.90164e-01   2.10395e+00  -1.15447e+00
Si    6.72314e+00   6.81342e+00   6.75266e+00  6.73880e-01   1.14802e-01   7.14440e-01
Si    9.41414e+00   9.40026e+00   6.87802e+00  1.06097e+00   1.69179e+00  -2.49872e-01
Si    6.72557e+00   9.50830e+00   9.56593e+00  3.94820e-01   7.06415e-01   1.66586e-01
Si    9.48680e+00   6.73728e+00   9.56417e+00 -8.85063e-01   1.39027e+00  -1.12686e+00
