64
Lattice="10.862 0 0 0 10.862 0 0 0 10.862 " PBC="1 1 1" Properties=species:S:1:pos:R:3:force:R:3 Energy="-272.63352"
Si    1.08880e+01  -6.05277e-02   1.08615e+01 -8.59020e-01   6.08731e-01  -4.52816e-01
Si    2.71164e+00   2.73016e+00   4.39626e-02  1.26685e-01  -2.99311e-01  -5.87587e-01
Si    1.07460e+01   2.67498e+00   2.76369e+00  3.98584e-01   1.59540e-01  -4.11181e-01
Si    2.69624e+00   9.20627e-02   2.60472e+00  1.84725e-01  -9.93387e-01   7.34393e-01
Si    1.29115e+00   1.36283e+00   1.34197e+00 -3.08385e-01   6.22085e-01  -6.55475e-02
Si    4.04222e+00   4.09595e+00   1.42913e+00  2.12614e-02  -4.23383e-01   2.36655e-01
Si    1.30510e+00   4.04004e+00   4.03520e+00 -2.79661e-01   9.51620e-02   6.25606e-01
Si    4.00300e+00   1.43038e+00   3.98156e+00  8.03236e-01  -8.17002e-01   1.15345e+00
Si    5.48313e+00   1.08908e+01   1.08317e+01  3.68654e-01   1.42434e-01  -6.61100e-01
Si    8.16701e+00   2.80763e+00   1.08536e+01 -3.15108e-01  -4.87754e-01  -2.39377e-01
Si    5.47601e+00   2.73314e+00   2.78139e+00 -7.35295e-01   7.64696e-02  -1.32012e+00
Si    8.11832e+00   1.08585e+01   2.71045e+00  5.02390e-01   9.29536e-01   7.09816e-01
Si    6.81154e+00   1.40002e+00   1.37559e+00  7.51878e-02   1.68414e-01  -4.43072e-01
Si    9.54296e+00   4.14858e+00   1.33267e+00 -9.59811e-01  -6.80009e-01   1.03577e+00
Si    6.79494e+00   4.08554e+00   4.04061e+00  1.21447e+00   6.45341e-01   3.15494e-01
Si    9.43467e+00   1.37322e+00   4.24110e+00  6.15550e-01  -1.38616e+00  -1.11336e+00
Si    1.08648e+01   5.38756e+00   1.08523e+01  1.20341e+00   4.01067e-01  -9.04098e-02
Si    2.78721e+00   8.16123e+00  -5.32048e-02 -8.92254e-02  -1.00155e+00   6.43998e-01
Si    7.28242e-02   8.22653e+00   2.71956e+00  1.46054e-01  -9.46189e-01   5.59031e-02
Si    2.58529e+00   5.43791e+00   2.69108e+00  1.18913e+00  -4.24644e-01   4.69474e-01
Si    1.39913e+00   6.79379e+00   1.32721e+00 -9.21453e-01   8.14736e-01  -6.68949e-01
Si    4.06801e+00   9.59757e+00   1.24741e+00  1.57645e-02  -2.49178e-01   9.03163e-01
Si    1.47231e+00   9.51661e+00   4.08556e+00  1.75244e-02   9.74226e-02  -5.33246e-01
Si    4.00180e+00   6.77382e+00   4.01509e+00  7.26770e-01   4.15556e-02   2.32902e-01
Si    5.39443e+00   5.45730e+00   1.32575e-01  6.09459e-01   3.48304e-01  -8.44784e-01
Si    8.21623e+00   8.12188e+00   2.73556e-02 -1.71314e-01   1.29012e-01   1.65842e-01
Si    5.35565e+00   8.27598e+00   2.74596e+00 -1.33695e-01  -7.85443e-01  -8.26750e-01
Si    8.15735e+00   5.55427e+00   2.67392e+00  2.85546e-01  -1.32439e+00   6.39471e-01
Si    6.80074e+00   6.89659e+00   1.41383e+00 -9.57483e-01   1.44015e-01  -2.28151e-01
Si    9.51827e+00   9.51971e+00   1.40853e+00  4.29632e-02  -5.09348e-02  -4.92790e-01
Si    6.70357e+00   9.60776e+00   4.05164e+00  3.10764e-01  -2.46376e-01   5.04630e-01
Si    9.57303e+00   6.80333e+00   4.05412e+00 -4.74703e-01   7.59707e-01   2.48844e-01
Si    8.27855e-02  -1.11474e-01   5.47008e+00 -9.71203e-01   1.03545e+00   1.37980e-01
Si    2.73098e+00   2.74818e+00   5.40103e+00 -1.12882e+00  -7.22423e-01  -1.40623e-01
Si    1.09251e+01   2.58579e+00   8.14756e+00 -6.14141e-01   5.96913e-01  -2.37635e-01
Si    2.75355e+00  -2.95397e-02   8.22290e+00  5.86824e-02  -8.91887e-01  -6.86941e-01
Si    1.41827e+00   1.28714e+00   6.81235e+00  4.72648e-01   5.34814e-02  -5.88048e-01
Si    4.06203e+00   4.07636e+00   6.68792e+00  8.46942e-01   1.44694e-01   7.54915e-01
Si    1.31264e+00   3.98627e+00   9.47884e+00  8.85945e-01   6.80711e-01   2.64916e-01
Si    4.10945e+00   1.40459e+00   9.45243e+00 -4.22848e-01  -3.33094e-01   1.35473e+00
Si    5.35786e+00   3.24151e-02   5.46670e+00  1.47142e-01   8.99233e-01  -8.47796e-01
Si    8.09645e+00   2.74089e+00   5.50945e+00 -1.95962e-01   2.63213e-01   3.94525e-02
Si    5.41950e+00   2.71059e+00   8.11140e+00 -1.47284e-01   1.44970e+00   1.81949e-01
Si    8.18466e+00   3.28368e-02   8.15524e+00 -1.22011e+00  -1.05133e+00  -1.16240e-01
Si    6.74633e+00   1.36843e+00   6.84611e+00  4.40750e-01  -5.55899e-01  -6.49164e-01
Si    9.55452e+00   3.99781e+00   6.85433e+00 -2.81662e-01   1.40261e-01  -4.18849e-01
Si    6.73777e+00   4.15225e+00   9.50621e+00 -1.48147e-01  -6.65037e-01   2.13241e-01
Si    9.47401e+00   1.36656e+00   9.45611e+00  8.35639e-01  -1.96912e-01   1.64167e+00
Si    1.08385e+01   5.39418e+00   5.45893e+00  2.32842e-01  -9.19359e-02  -2.45475e-01
Si    2.76208e+00   8.11267e+00   5.45800e+00 -4.76922e-01  -9.47108e-02   8.90984e-02
Si    1.08067e+01   8.08806e+00   8.14660e+00  3.26809e-01  -2.57114e-01   8.71717e-01
Si    2.71145e+00   5.37074e+00   8.09951e+00 -1.44007e-01   1.15617e-01   6.20599e-01
Si    1.32414e+00   6.76300e+00   6.81034e+00  4.31256e-01   1.50061e-02  -4.13681e-01
Si    4.14997e+00   9.45162e+00   6.78413e+00 -6.26369e-01  -9.14285e-03   1.21438e+00
Si    1.36321e+00   9.39211e+00   9.55088e+00 -3.26548e-01   9.51514e-01  -1.15128e+00
Si    4.10498e+00   6.74148e+00   9.48794e+00 -1.68846e-01  -1.82175e-01  -1.89781e-02
Si    5.46961e+00   5.43538e+00   5.36385e+00 -1.30606e+00  -3.17657e-02  -3.32806e-01
Si    8.10377e+00   8.22136e+00   5.34870e+00  1.94764e-01  -8.73729e-01   6.33772e-01
Si    5.52822e+00   8.06501e+00   8.16745e+00 -1.07091e+00   1.29613e-01  -5.50185e-01
Si    8.11707e+00   5.38687e+00   8.07866e+00  4.97793e-01   3.69444e-01   8.36662e-01
Si    6.76038e+00   6.73744e+00   6.73474e+00  1.18011e+00   7.94063e-01  -3.56601e-01
Si    9.48681e+00   9.47132e+00   6.83580e+00  5.02044e-03   1.41171e-01  -8.09413e-01
Si    6.83677e+00   9.39392e+00   9.50075e+00  4.48024e-01   1.60285e+00   2.85911e-01
Si    9.49691e+00   6.68761e+00   9.56387e+00 -4.07509e-01   5.06397e-01  -1.27345e+00
