64
Lattice="10.862 0 0 0 10.862 0 0 0 10.862 " PBC="1 1 1" Properties=species:S:1:pos:R:3:force:R:3 Energy="-272.72888"
Si    1.09325e+01  -7.02649e-02   1.08071e+01 -9.20231e-01   3.36817e-01   1.34997e+00
Si    2.69908e+00   2.73827e+00   6.90219e-02  3.94237e-01  -7.45663e-01  -9.84554e-01
Si    1.08644e+01   2.69290e+00   2.79339e+00 -2.77920e-01  -1.39785e-01  -1.19039e+00
Si    2.67590e+00  -5.49083e-02   2.77331e+00  6.62269e-01   2.19248e-01  -1.75224e+00
Si    1.34056e+00   1.30943e+00   1.38148e+00  5.61543e-02   1.92933e-01   1.84152e-01
Si    4.05926e+00   4.06360e+00   1.40864e+00 -1.04266e+00   3.12198e-01   5.89301e-01
Si    1.30996e+00   4.03910e+00   4.08671e+00  8.99052e-01   1.71711e-01   3.44559e-01
Si    4.06722e+00   1.32278e+00   3.97119e+00  3.89756e-01   5.60958e-01   7.77529e-01
Si    5.43775e+00   1.08849e+01   1.07669e+01 -1.41344e-01   5.26204e-01   1.19476e+00
Si    8.20100e+00   2.83598e+00   1.08719e+01  6.79169e-04  -8.91148e-02  -2.21925e-02
Si    5.46991e+00   2.73818e+00   2.64596e+00  2.73519e-01  -4.39537e-01   6.85476e-01
Si    8.15869e+00   1.09890e+01   2.67336e+00 -2.50146e-01  -1.31511e+00   4.10184e-01
Si    6.84192e+00   1.39828e+00   1.26915e+00 -5.68140e-01   2.93997e-01  -1.71880e-01
Si    9.60461e+00   4.16691e+00   1.39510e+00 -2.16392e-01  -1.37201e+00  -5.00378e-03
Si    6.83768e+00   4.11755e+00   4.03947e+00  4.83438e-01  -9.98526e-01  -1.51088e+00
Si    9.49928e+00   1.34526e+00   4.11101e+00  3.24808e-01  -5.70023e-02   1.07164e+00
Si    1.09260e+01   5.35840e+00   1.08017e+01  2.69415e-01   1.18703e+00   4.09041e-01
Si    2.75606e+00   8.04462e+00  -5.27214e-02  1.58880e-01   8.17347e-01   6.18777e-02
Si   -2.55248e-02   8.19391e+00   2.69154e+00  5.42762e-01  -1.02410e+00   1.07706e+00
Si    2.67614e+00   5.45572e+00   2.77733e+00  2.90356e-01  -5.42982e-02  -3.11495e-01
Si    1.35354e+00   6.81667e+00   1.33389e+00 -1.95028e-01  -7.08973e-01   2.10861e-01
Si    4.07189e+00   9.52195e+00   1.27825e+00 -6.00853e-01   1.01463e-01   1.95486e-01
Si    1.35340e+00   9.51462e+00   4.07699e+00 -6.22240e-01  -9.41444e-01   1.17859e+00
Si    4.09925e+00   6.82439e+00   4.11945e+00 -4.82501e-02  -4.54074e-01  -9.44889e-01
Si    5.29952e+00   5.45433e+00   1.23926e-01  1.51767e+00  -9.31137e-02  -1.19683e+00
Si    8.14848e+00   8.15136e+00  -4.60583e-03  2.85584e-01  -1.81005e-01   5.16671e-01
Si    5.40804e+00   8.21667e+00   2.66813e+00  4.56856e-01  -7.09567e-01   1.62696e-01
Si    8.23738e+00   5.48399e+00   2.69737e+00 -8.52896e-01   2.79274e-01   3.07966e-01
Si    6.80996e+00   6.77877e+00   1.30193e+00 -3.77908e-01   4.70089e-01   1.23645e+00
Si    9.49124e+00   9.48158e+00   1.42159e+00 -2.21302e-01   1.20872e+00  -1.50602e+00
Si    6.71114e+00   9.63126e+00   4.03895e+00  6.87830e-01  -1.74437e-01   3.33241e-01
Si    9.49491e+00   6.82420e+00   4.14556e+00  3.70469e-01   3.89882e-01  -1.05140e+00
Si    1.55386e-02  -6.70625e-02   5.58813e+00 -3.65004e-01   7.18256e-01  -1.73623e+00
Si    2.69799e+00   2.61292e+00   5.38108e+00  5.38740e-02   3.79214e-01  -9.35518e-01
Si    1.09427e+01   2.72696e+00   8.08415e+00 -1.14376e-01  -1.82697e-01   4.32669e-01
Si    2.77865e+00  -1.19005e-01   8.20529e+00 -2.46646e-01   9.40374e-01  -8.27202e-01
Si    1.45300e+00   1.30535e+00   6.77647e+00 -3.46006e-01  -5.70506e-01   1.21032e+00
Si    4.05964e+00   3.95633e+00   6.64536e+00 -1.33333e-01   1.72647e+00   6.00754e-01
Si    1.46283e+00   4.09818e+00   9.43833e+00 -3.49085e-01  -6.01596e-01   1.68863e-01
Si    4.09434e+00   1.38773e+00   9.44182e+00 -1.00816e+00   6.32953e-02   1.10495e+00
Si    5.35225e+00   7.27565e-02   5.51045e+00  6.38969e-01  -1.87281e-01  -6.02961e-01
Si    8.08180e+00   2.73772e+00   5.42590e+00  2.77337e-01  -7.84658e-01   2.64518e-01
Si    5.34926e+00   2.83674e+00   8.17957e+00  6.55521e-01  -8.89574e-01  -3.38510e-01
Si    8.21780e+00   9.29453e-03   8.29929e+00 -1.62253e+00   1.16182e+00  -2.82697e-01
Si    6.72926e+00   1.42066e+00   6.90076e+00  7.84515e-01  -4.16877e-01   1.98084e-02
Si    9.46381e+00   4.03137e+00   6.77583e+00  2.31021e-01   4.49154e-01   6.90015e-02
Si    6.67959e+00   4.12838e+00   9.57088e+00  6.22210e-01   4.98104e-01  -3.57348e-02
Si    9.59705e+00   1.43170e+00   9.57191e+00  6.52665e-02  -7.91119e-02  -4.61251e-01
Si    1.08285e+01   5.39636e+00   5.40243e+00 -3.66380e-01  -8.51998e-02   6.89745e-01
Si    2.67306e+00   8.07203e+00   5.46562e+00 -3.64744e-02   8.53785e-01   2.30271e-01
Si    1.07482e+01   8.12154e+00   8.15052e+00  5.41417e-01   1.17101e-01   6.12902e-01
Si    2.76354e+00   5.45557e+00   8.06970e+00  2.81985e-01  -4.82763e-01  -5.18446e-01
Si    1.23080e+00   6.75622e+00   6.81743e+00  8.38868e-01   2.29466e-02  -3.31564e-01
Si    4.12609e+00   9.43676e+00   6.81179e+00 -9.66847e-01   8.86232e-02  -4.34134e-01
Si    1.37580e+00   9.42714e+00   9.50096e+00 -9.43181e-02  -7.29028e-01  -4.40996e-01
Si    4.16959e+00   6.75162e+00   9.44959e+00 -8.52107e-01   2.92068e-01  -1.26574e-01
Si    5.47191e+00   5.31980e+00   5.30574e+00 -1.03153e+00   1.31630e+00   1.40777e+00
Si    8.10644e+00   8.19518e+00   5.41632e+00 -3.02938e-01   6.79948e-01   8.08392e-02
Si    5.50231e+00   8.15457e+00   8.11790e+00  4.52441e-01  -8.43024e-01   1.35239e-01
Si    8.05707e+00   5.42519e+00   8.08802e+00  8.77772e-01  -4.38236e-01   1.24972e+00
Si    6.79747e+00   6.72698e+00   6.69340e+00 -7.78751e-01   6.66708e-01  -1.70381e-02
Si    9.41622e+00   9.55915e+00   6.88569e+00  2.86372e-01  -1.14125e+00  -6.47772e-01
Si    6.77264e+00   9.48998e+00   9.57650e+00  7.12797e-01  -5.47098e-03  -1.18466e+00
Si    9.48263e+00   6.72952e+00   9.56064e+00 -4.34315e-01  -1.06989e-01  -1.00585e+00
