64
Lattice="10.862 0 0 0 10.862 0 0 0 10.862 " PBC="1 1 1" Properties=species:S:1:pos:R:3:force:R:3 Energy="-272.50351"
Si    1.08175e+01   6.83013e-02   1.09806e+01 -1.38570e-01  -9.06004e-01  -4.81639e-01
Si    2.78317e+00   2.68978e+00  -6.72204e-03 -2.10333e-01   5.22857e-01   4.55984e-01
Si    1.08890e+01   2.72761e+00   2.70733e+00 -6.07032e-01   7.76035e-01  -5.47866e-01
Si    2.64625e+00   7.35502e-04   2.69340e+00  1.16877e+00   3.85136e-01   3.64984e-01
Si    1.31610e+00   1.42809e+00   1.36864e+00  1.08242e+00  -3.25602e-01  -2.57877e-01
Si    4.19602e+00   4.07839e+00   1.37390e+00  1.31928e-01  -6.13126e-01  -8.18022e-01
Si    1.42975e+00   4.06835e+00   3.93277e+00 -8.29981e-01  -1.47261e-02   1.98930e+00
Si    4.13110e+00   1.37218e+00   4.12873e+00 -1.40220e+00  -7.52076e-01  -7.28040e-01
Si    5.42114e+00   1.08552e+01   1.09042e+01  6.13033e-01   2.63129e-01   3.81974e-01
Si    8.16093e+00   2.72178e+00   1.09095e+01  1.02937e-01  -8.82341e-01   4.83255e-01
Si    5.50910e+00   2.62890e+00   2.75659e+00 -7.27547e-01   1.91901e+00   4.95726e-01
Si    8.14517e+00   1.07572e+01   2.75673e+00 -3.70285e-01   7.39189e-01   1.35535e-01
Si    6.78873e+00   1.36848e+00   1.44845e+00  9.65703e-01  -1.42173e+00  -1.27032e+00
Si    9.39938e+00   4.10942e+00   1.45780e+00  1.51924e+00  -1.08416e+00  -8.86149e-01
Si    6.83439e+00   4.12694e+00   4.04350e+00 -3.05853e-01  -6.31177e-01   5.07236e-01
Si    9.61289e+00   1.31960e+00   3.97298e+00 -1.45763e+00   8.79593e-02   1.01034e+00
Si    1.07611e+01   5.35664e+00   1.08795e+01  7.45330e-01   3.13601e-01  -5.49667e-01
Si    2.65071e+00   8.20847e+00   2.62011e-03  3.42318e-02  -1.28775e+00  -1.06602e-01
Si   -6.97433e-02   8.06645e+00   2.74123e+00  5.99503e-01  -3.17539e-01   1.85209e-01
Si    2.78561e+00   5.37416e+00   2.69300e+00  4.75349e-01   1.08329e+00  -2.20892e-01
Si    1.31944e+00   6.67828e+00   1.35999e+00  2.06331e-01   9.11298e-01  -9.75482e-02
Si    4.05605e+00   9.47754e+00   1.33362e+00 -1.53794e-01   2.62928e-01   8.56988e-01
Si    1.33888e+00   9.46227e+00   4.03876e+00 -5.06889e-01   2.62153e-01  -1.67271e-01
Si    4.10541e+00   6.71965e+00   4.17686e+00 -3.24183e-01   1.96648e-01  -1.35584e+00
Si    5.53635e+00   5.42253e+00  -1.28043e-01 -8.50272e-01  -8.93580e-01   8.52372e-01
Si    8.17614e+00   8.25737e+00   1.77774e-02 -6.94471e-01  -1.01698e+00  -1.39758e+00
Si    5.42160e+00   8.08020e+00   2.69595e+00 -5.46599e-01  -6.79333e-01  -3.51467e-01
Si    8.16815e+00   5.49206e+00   2.70774e+00 -1.68249e+00   5.30414e-01   9.29716e-03
Si    6.77193e+00   6.77174e+00   1.22184e+00  9.35443e-01   7.52806e-01   1.33756e+00
Si    9.48884e+00   9.45021e+00   1.42461e+00  6.39066e-01   8.13997e-01  -1.67919e-01
Si    6.75096e+00   9.35884e+00   4.06817e+00  3.71930e-02   1.48096e+00   5.48936e-01
Si    9.40442e+00   6.77034e+00   4.15321e+00  8.61683e-01   5.10281e-01  -3.62560e-01
Si    1.40359e-02   1.09914e-02   5.40006e+00  8.50951e-01   2.34001e-01  -5.35633e-01
Si    2.70179e+00   2.73657e+00   5.42157e+00  3.45113e-01   3.52148e-01  -5.55744e-01
Si    1.07579e+01   2.73490e+00   8.11982e+00  3.12270e-01  -3.61264e-01   5.73128e-01
Si    2.68459e+00   9.09259e-02   8.10377e+00 -2.32497e-01   3.02758e-01   5.01161e-01
Si    1.28451e+00   1.47803e+00   6.72364e+00  2.57000e-01  -1.05180e+00   5.76285e-01
Si    4.03412e+00   4.03845e+00   6.83965e+00  4.69747e-01  -3.28607e-01   1.54937e-01
Si    1.34820e+00   4.00541e+00   9.48952e+00 -6.58973e-01   1.09998e-01   6.35827e-01
Si    4.13892e+00   1.31870e+00   9.54416e+00 -3.30421e-01   5.31248e-01  -1.08163e+00
Si    5.38583e+00  -4.97671e-02   5.44842e+00  7.66780e-01  -4.77937e-01  -1.01585e-01
Si    8.22994e+00   2.74183e+00   5.37470e+00 -2.90999e-01  -6.05207e-01  -7.94953e-01
Si    5.52925e+00   2.66566e+00   8.12258e+00 -4.18110e-01   3.17239e-01   4.54871e-01
Si    8.12773e+00  -9.84886e-03   8.00034e+00  7.23277e-01   2.40780e-01   1.30513e+00
Si    6.84221e+00   1.35107e+00   6.68643e+00 -4.73455e-01   2.13961e-01  -2.64954e-01
Si    9.47643e+00   4.10901e+00   6.74763e+00  1.25287e-01   4.10747e-01   3.69645e-01
Si    6.93622e+00   4.03221e+00   9.50639e+00 -1.31775e+00  -9.34036e-02  -6.70948e-01
Si    9.46374e+00   1.28092e+00   9.53860e+00 -3.02027e-01   8.63889e-01  -7.41048e-01
Si    1.08541e+01   5.42467e+00   5.37167e+00  5.69954e-01  -3.55554e-01   3.98537e-02
Si    2.67626e+00   8.13468e+00   5.36753e+00  4.40655e-01  -1.66833e-01   1.31859e+00
Si    1.09118e+01   8.26824e+00   8.15744e+00  1.79630e-01  -5.31903e-01  -2.11851e-01
Si    2.65706e+00   5.38641e+00   8.16791e+00  5.31976e-01   7.83770e-01   1.84781e-02
Si    1.32150e+00   6.78620e+00   6.78477e+00  1.68192e-01   1.90988e-01  -2.67447e-02
Si    4.00475e+00   9.49854e+00   6.84799e+00 -2.06301e-01  -5.72782e-02  -9.23509e-01
Si    1.33287e+00   9.65490e+00   9.55147e+00  1.24504e-01  -2.29008e-01  -1.30567e-01
Si    4.08939e+00   6.76966e+00   9.53531e+00 -1.11460e+00   4.01514e-01  -4.49664e-01
Si    5.42554e+00   5.36436e+00   5.51666e+00  6.60373e-01   5.53338e-01   1.30731e-02
Si    8.13529e+00   8.17413e+00   5.50709e+00  1.23738e-01  -1.42970e-01  -1.33186e-01
Si    5.38398e+00   8.19656e+00   8.19854e+00 -1.47184e-02   1.04705e-01   2.18771e-01
Si    8.14822e+00   5.46095e+00   8.18189e+00  4.39993e-01   7.75961e-01  -9.06630e-01
Si    6.73180e+00   6.88892e+00   6.84728e+00  3.05772e-01  -1.36441e+00   8.81743e-02
Si    9.59586e+00   9.55895e+00   6.73912e+00 -9.97182e-01  -5.58025e-01   3.22327e-01
Si    6.77448e+00   9.61508e+00   9.46666e+00  3.31029e-01  -8.53425e-01   3.14185e-01
Si    9.56424e+00   6.87196e+00   9.46676e+00 -6.79224e-01  -1.94980e-01   7.76756e-01
