64
Lattice="10.862 0 0 0 10.862 0 0 0 10.862 " PBC="1 1 1" Properties=species:S:1:pos:R:3:force:R:3 Energy="-272.08847"
Si    1.07801e+01   7.59136e-04   1.09318e+01  1.37181e+00   1.95131e+00  -2.12155e+00
Si    2.70462e+00   2.69250e+00  -5.28063e-02  1.62615e-02   8.19963e-01   1.19513e+00
Si    1.09150e+01   2.75554e+00   2.67200e+00  1.69758e-01  -7.64884e-02   5.60347e-01
Si    2.73064e+00   6.20579e-02   2.77975e+00 -3.00191e-01  -5.07882e-01   6.60887e-02
Si    1.38773e+00   1.36878e+00   1.37898e+00 -2.94982e-01  -2.83541e-01  -4.42488e-01
Si    4.15998e+00   4.05120e+00   1.33604e+00  1.77751e-02  -8.22768e-01  -4.08705e-01
Si    1.41633e+00   4.11378e+00   4.07631e+00 -4.04007e-01  -2.07160e-01  -8.29205e-01
Si    4.05477e+00   1.48063e+00   4.13037e+00  2.62852e-01  -2.00168e+00   2.29586e-01
Si    5.41772e+00   1.08868e+01   1.08929e+01  2.31514e-01  -5.50468e-01  -2.43834e-01
Si    8.03330e+00   2.61365e+00   1.08840e+01  4.14584e-01   1.27772e-01   2.60438e-04
Si    5.46349e+00   2.66762e+00   2.85617e+00 -1.80696e-01   8.80276e-01  -1.92126e+00
Si    8.18295e+00   1.07635e+01   2.72978e+00 -2.32192e-01   3.34564e-01   1.76770e-01
Si    6.74967e+00   1.25405e+00   1.47241e+00  1.52508e-01   5.23403e-01  -1.81029e-01
Si    9.45416e+00   3.94328e+00   1.35553e+00 -2.36388e-01   1.00225e+00  -3.47349e-01
Si    6.76652e+00   4.07342e+00   4.10690e+00 -5.29684e-01   1.62569e-01   1.45549e+00
Si    9.49701e+00   1.42991e+00   3.95572e+00  3.91459e-01  -7.09633e-01  -2.21221e-01
Si    1.07670e+01   5.48631e+00   1.09511e+01 -3.26691e-01  -7.13476e-01  -8.69623e-01
Si    2.67107e+00   8.21930e+00   8.47661e-02  1.28300e-01  -5.46795e-01  -6.03701e-01
Si   -9.86734e-02   8.13616e+00   2.75547e+00  3.50922e-01   1.48964e-01  -1.66956e+00
Si    2.71807e+00   5.37507e+00   2.60581e+00  4.38361e-01   1.37152e-01   1.00312e+00
Si    1.30442e+00   6.74335e+00   1.39960e+00  1.38007e-01   1.37790e+00   1.93987e-02
Si    4.09384e+00   9.57427e+00   1.39528e+00 -3.35003e-01  -6.60264e-01   4.95517e-01
Si    1.27065e+00   9.46583e+00   4.05908e+00  1.23093e+00   9.38267e-01  -4.34996e-02
Si    4.05709e+00   6.66483e+00   4.08555e+00 -1.59826e-01   1.10901e+00  -8.02880e-02
Si    5.54129e+00   5.36585e+00  -1.07667e-01 -1.07169e+00   6.07437e-01   1.02838e+00
Si    8.15752e+00   8.16602e+00   1.99604e-03 -7.20476e-01  -3.75420e-01  -3.37543e-01
Si    5.41158e+00   8.06883e+00   2.70832e+00  7.25325e-01   4.48219e-02   4.24524e-01
Si    8.11195e+00   5.29377e+00   2.74799e+00  6.04417e-01   4.05319e-01  -7.90858e-01
Si    6.84294e+00   6.67883e+00   1.36942e+00 -3.29510e-01   7.77029e-01  -4.40724e-01
Si    9.49219e+00   9.56175e+00   1.24009e+00 -5.32493e-01  -1.90949e+00   2.49968e+00
Si    6.91996e+00   9.34486e+00   4.15611e+00 -1.56057e+00   7.74884e-01  -1.36259e+00
Si    9.50034e+00   6.68142e+00   3.99505e+00 -2.37434e-01   2.18559e-01   7.76174e-01
Si    7.01555e-03   1.32524e-01   5.30169e+00 -8.28280e-02  -7.04838e-01   4.89725e-01
Si    2.74084e+00   2.80113e+00   5.42441e+00 -7.51229e-01  -1.94662e-01   1.51632e+00
Si    1.07618e+01   2.73866e+00   8.15048e+00  1.45185e-02   5.02648e-01  -3.37568e-01
Si    2.69062e+00   1.18111e-01   8.13355e+00 -2.09651e-01  -1.05942e+00  -5.36693e-02
Si    1.27517e+00   1.40793e+00   6.78764e+00  8.20309e-01   8.36700e-01  -5.16711e-01
Si    4.06386e+00   4.08043e+00   6.90390e+00  2.93087e-02  -3.01141e-01   1.89836e-01
Si    1.23826e+00   4.07550e+00   9.58599e+00  4.56523e-01   4.75109e-01  -6.08104e-01
Si    4.05855e+00   1.34711e+00   9.55755e+00  8.38962e-01   3.31214e-01  -1.14825e+00
Si    5.47444e+00  -2.76223e-02   5.37054e+00 -1.73095e-01   7.16597e-02  -3.14359e-01
Si    8.19456e+00   2.69083e+00   5.33367e+00 -4.96552e-01   7.06051e-01   8.38285e-01
Si    5.53455e+00   2.61648e+00   8.11966e+00 -1.03174e+00   1.67026e-01  -3.12872e-02
Si    8.10212e+00  -9.63268e-02   8.06399e+00  9.75937e-01   2.06785e-01  -4.90694e-02
Si    6.86995e+00   1.28378e+00   6.68195e+00 -4.12457e-01   4.87332e-01   2.32872e-01
Si    9.47842e+00   4.15472e+00   6.69698e+00  6.39906e-01  -4.43535e-01   3.70169e-01
Si    6.83631e+00   4.02483e+00   9.43941e+00  4.25599e-01  -3.82355e-01   1.54001e-01
Si    9.38759e+00   1.35120e+00   9.43750e+00  3.95159e-01  -8.33433e-01   7.51280e-01
Si    1.09445e+01   5.49229e+00   5.37174e+00 -1.68044e-01  -9.13121e-03   7.83573e-01
Si    2.76829e+00   8.21817e+00   5.41040e+00 -5.26402e-01  -8.24497e-01  -1.03872e+00
Si    1.09023e+01   8.21846e+00   8.11766e+00  1.12254e-01   1.96421e-01  -3.81517e-01
Si    2.68500e+00   5.48455e+00   8.24222e+00 -4.52249e-01  -4.81248e-01  -3.24454e-01
Si    1.43802e+00   6.90105e+00   6.76954e+00 -4.40567e-01  -8.93791e-01   3.43929e-01
Si    4.02949e+00   9.58441e+00   6.71526e+00  9.95115e-01  -7.18467e-02   1.62531e+00
Si    1.31865e+00   9.57740e+00   9.50979e+00  4.73662e-01   1.81973e-01   3.37147e-01
Si    4.08122e+00   6.81639e+00   9.54207e+00 -2.89973e-01   6.72737e-02   8.67103e-01
Si    5.39424e+00   5.46421e+00   5.60030e+00  6.13413e-01  -7.75977e-01  -1.25370e+00
Si    8.24966e+00   8.03895e+00   5.44893e+00  5.56912e-03  -3.28809e-01   5.82580e-01
Si    5.40574e+00   8.14804e+00   8.19208e+00 -8.17206e-01   1.10330e+00  -8.11277e-01
Si    8.23088e+00   5.45397e+00   8.22057e+00 -8.28733e-01   1.88301e-01  -1.14108e+00
Si    6.76498e+00   6.82908e+00   6.88667e+00  1.20159e+00  -4.91351e-01  -1.05848e-01
Si    9.61181e+00   9.54120e+00   6.65718e+00 -7.21376e-01  -1.08213e-01   6.63486e-01
Si    6.75860e+00   9.50209e+00   9.49697e+00  2.48776e-02   1.72160e-02   5.28873e-01
Si    9.53624e+00   6.90366e+00   9.46653e+00  1.86431e-01  -6.11140e-01   8.25680e-01
