64
Lattice="10.862 0 0 0 10.862 0 0 0 10.862 " PBC="1 1 1" Properties=species:S:1:pos:R:3:force:R:3 Energy="-273.2136"
Si    1.08584e+01   5.86809e-03   1.07376e+01 -2.12246e-01  -7.43792e-01   1.30507e+00
Si    2.64763e+00   2.81640e+00   4.88682e-02 -2.89291e-01  -1.83231e+00  -1.60206e-01
Si    1.08332e+01   2.62887e+00   2.72601e+00  6.37259e-02   5.92282e-01   3.53239e-01
Si    2.66144e+00   8.33235e-03   2.62108e+00  3.90811e-01   5.27513e-01   1.35203e+00
Si    1.23670e+00   1.28792e+00   1.37458e+00  1.05394e+00   1.00626e+00  -1.29700e+00
Si    4.00578e+00   4.12071e+00   1.34406e+00  8.48800e-01  -1.02271e-01   9.57473e-01
Si    1.33242e+00   4.01946e+00   4.05956e+00 -1.00005e+00   4.12040e-01   6.32106e-01
Si    4.06286e+00   1.33610e+00   4.04983e+00 -7.59315e-02   7.26742e-01  -3.62417e-01
Si    5.44699e+00   1.09216e+01   1.07934e+01 -1.37484e-01  -8.11891e-01   5.62806e-01
Si    8.11951e+00   2.69090e+00   1.08859e+01  8.42087e-01   2.94800e-01  -1.26859e+00
Si    5.48807e+00   2.71798e+00   2.64115e+00 -1.01608e+00   8.40683e-02   5.72856e-01
Si    8.15817e+00   1.08896e+01   2.64524e+00 -9.59874e-02   7.30523e-01   7.98917e-01
Si    6.81106e+00   1.36732e+00   1.27915e+00 -3.85965e-01  -5.17964e-01   7.87926e-01
Si    9.60668e+00   3.95624e+00   1.26586e+00 -7.28382e-01   1.29397e+00   8.86813e-01
Si    6.84132e+00   4.02671e+00   4.08724e+00 -4.92675e-01  -2.82957e-02   1.40573e-01
Si    9.46171e+00   1.39970e+00   4.13747e+00 -1.23568e-01  -9.92740e-01  -3.73139e-01
Si    1.08897e+01   5.48468e+00   1.08336e+01 -9.82030e-02  -7.70529e-01  -1.81902e-02
Si    2.79468e+00   8.05214e+00  -1.67685e-02 -7.09114e-01   1.09925e+00   6.61591e-01
Si    1.79565e-02   8.27776e+00   2.73705e+00  1.84315e-01  -7.70429e-01   1.32731e-01
Si    2.65371e+00   5.37809e+00   2.76819e+00  2.51556e-01   1.01523e+00  -4.42593e-01
Si    1.32306e+00   6.83143e+00   1.40782e+00  5.95836e-01  -2.38469e-01  -1.65201e-01
Si    4.03736e+00   9.59747e+00   1.33331e+00  6.14676e-01  -1.01085e+00  -8.52576e-01
Si    1.39730e+00   9.58901e+00   4.09507e+00 -2.41628e-01  -5.04357e-01   1.79695e-01
Si    4.03539e+00   6.76765e+00   4.11410e+00 -1.12908e-01   2.73104e-01  -7.08336e-01
Si    5.40170e+00   5.52829e+00   1.12821e-01  7.56395e-01  -7.88712e-01  -5.39379e-01
Si    8.12655e+00   8.11442e+00   4.79082e-02  4.56836e-01  -1.86289e-02  -2.35326e-01
Si    5.33384e+00   8.23738e+00   2.76942e+00 -2.01458e-02  -2.08447e-01  -1.41803e-01
Si    8.23826e+00   5.32759e+00   2.75329e+00  1.68180e-01   9.87694e-01  -7.78396e-01
Si    6.76355e+00   6.87836e+00   1.51582e+00  5.35140e-01  -1.14650e+00  -2.67370e-01
Si    9.49941e+00   9.53930e+00   1.36895e+00  3.37589e-01  -2.73140e-02  -1.25729e+00
Si    6.78669e+00   9.57317e+00   3.99625e+00  1.41554e-01  -2.83621e-01   7.65453e-01
Si    9.60179e+00   6.81246e+00   4.07696e+00 -1.25579e+00   3.86948e-01  -8.57235e-01
Si   -4.28609e-02  -7.81349e-03   5.46739e+00  1.75306e-01   1.04445e-01   1.99755e-01
Si    2.69278e+00   2.75775e+00   5.44538e+00  5.65538e-01  -9.02295e-01   2.67193e-01
Si    1.09468e+01   2.72022e+00   8.07865e+00 -1.01969e+00  -4.53963e-01   5.90138e-01
Si    2.81319e+00  -1.39680e-01   8.16021e+00  9.00848e-02   9.86875e-01   2.53912e-01
Si    1.42242e+00   1.25621e+00   6.83222e+00  9.16094e-02   4.10472e-01  -5.52939e-01
Si    4.03344e+00   4.17418e+00   6.82219e+00  1.03302e+00  -9.96732e-01  -1.21758e+00
Si    1.36115e+00   4.07341e+00   9.46544e+00 -4.74750e-02   8.08685e-01   1.71595e-01
Si    4.06390e+00   1.42437e+00   9.55521e+00 -7.15177e-01  -1.92968e-01  -8.34709e-01
Si    5.43748e+00   4.45599e-03   5.42697e+00  3.60306e-01   1.99982e-01   1.53766e-01
Si    8.12145e+00   2.68423e+00   5.53884e+00  3.17638e-02   3.20365e-01  -3.84821e-01
Si    5.40840e+00   2.71786e+00   8.11119e+00 -4.54937e-01   6.75914e-01   9.14399e-01
Si    8.14630e+00  -6.01714e-02   8.25917e+00 -8.90729e-03   5.27826e-01  -8.52301e-01
Si    6.79552e+00   1.33549e+00   6.90193e+00 -1.31234e-01  -7.39004e-01  -7.41661e-01
Si    9.48739e+00   4.08812e+00   6.80837e+00  2.82610e-01  -3.49626e-02  -7.43709e-02
Si    6.73443e+00   4.04902e+00   9.56806e+00 -3.54728e-01   5.90783e-01  -6.48049e-03
Si    9.50980e+00   1.37009e+00   9.48317e+00  1.82187e-02   6.99980e-01  -3.84601e-01
Si    1.08230e+01   5.49080e+00   5.43538e+00  9.08875e-01  -1.37576e+00   1.32620e-01
Si    2.71333e+00   8.14121e+00   5.44831e+00 -2.59167e-01   2.35551e-01  -5.45780e-01
Si    1.08491e+01   8.13989e+00   8.09974e+00 -1.16889e-01   6.50757e-02   1.27290e+00
Si    2.71447e+00   5.45401e+00   8.13573e+00 -7.45112e-01   9.16918e-01   3.24618e-01
Si    1.30381e+00   6.85238e+00   6.76197e+00  8.78582e-01  -9.83380e-01   2.42258e-01
Si    4.15649e+00   9.40030e+00   6.73483e+00 -2.95161e-02   5.74214e-01   4.67488e-01
Si    1.39934e+00   9.44718e+00   9.52221e+00 -5.76505e-02  -5.21370e-01  -5.20106e-01
Si    4.14271e+00   6.76912e+00   9.47907e+00  8.02532e-02   1.03405e-01  -5.67194e-01
Si    5.46788e+00   5.47332e+00   5.38689e+00 -3.84114e-01  -1.04396e+00   2.16678e-01
Si    8.15361e+00   8.16323e+00   5.36371e+00  2.52147e-01   3.50072e-01  -4.84801e-02
Si    5.55330e+00   8.08017e+00   8.05932e+00 -8.37370e-01   7.94186e-02   6.97115e-01
Si    8.05692e+00   5.38820e+00   8.13597e+00  5.04502e-01  -3.81158e-02   1.56807e-01
Si    6.84695e+00   6.77064e+00   6.68508e+00  1.46881e-01  -7.33154e-02   3.33111e-01
Si    9.46142e+00   9.48057e+00   6.85257e+00 -6.97226e-02   2.75599e-01  -9.33856e-01
Si    6.78481e+00   9.44696e+00   9.50894e+00 -1.83476e-01  -1.48829e-02   4.56156e-01
Si    9.47740e+00   6.72841e+00   9.44564e+00 -2.50516e-01   8.11826e-01   4.50138e-01
