64
Lattice="10.862 0 0 0 10.862 0 0 0 10.862 " PBC="1 1 1" Properties=species:S:1:pos:R:3:force:R:3 Energy="-272.87006"
Si    1.09396e+01  -4.35450e-02   1.08200e+01 -9.86648e-01   3.81725e-01   5.12995e-01
Si    2.68541e+00   2.71069e+00  -6.95873e-02  7.09661e-01  -3.95598e-02   5.47929e-01
Si    1.08473e+01   2.65703e+00   2.71076e+00 -1.40144e-01   2.59536e-01   5.98709e-01
Si    2.65462e+00  -3.68668e-02   2.65166e+00  6.52200e-01   1.06417e+00   8.78655e-01
Si    1.35285e+00   1.38152e+00   1.32566e+00 -7.68194e-03  -4.61390e-01  -3.11559e-01
Si    3.97733e+00   4.04852e+00   1.42388e+00  2.20462e-02  -3.01805e-01  -9.62667e-01
Si    1.30909e+00   4.05521e+00   4.10980e+00  2.70000e-01  -7.58308e-01  -2.82282e-01
Si    4.12660e+00   1.34963e+00   3.97534e+00 -8.49476e-01  -3.38660e-01   2.37312e-01
Si    5.46919e+00   1.08759e+01   1.08073e+01 -2.14225e-03  -1.07257e+00   1.84049e+00
Si    8.23852e+00   2.76743e+00   1.08277e+01 -8.82203e-01   5.15056e-02  -1.04611e+00
Si    5.44245e+00   2.72257e+00   2.59020e+00  6.94714e-01   1.29201e-01   1.29845e+00
Si    8.10021e+00   1.09260e+01   2.71153e+00  6.35479e-01   6.10412e-02  -1.60608e-01
Si    6.82185e+00   1.42747e+00   1.22578e+00  1.54129e-01  -4.87247e-01   6.52225e-01
Si    9.55502e+00   4.04730e+00   1.31863e+00  8.66577e-02   6.19002e-01   1.10699e+00
Si    6.83805e+00   4.04356e+00   4.10415e+00 -2.55816e-01   3.17867e-02  -1.48296e+00
Si    9.51248e+00   1.30316e+00   4.17640e+00 -2.59691e-01   4.31484e-01  -6.87557e-01
Si    1.09126e+01   5.39826e+00   1.08518e+01 -4.73442e-01   3.33339e-01  -3.59578e-01
Si    2.75758e+00   8.11123e+00  -8.77326e-02 -2.82552e-01   6.07037e-01   1.71879e+00
Si    1.08856e-01   8.18682e+00   2.67350e+00 -5.50218e-01  -6.83818e-01   1.33122e-01
Si    2.69365e+00   5.38159e+00   2.79474e+00 -7.36731e-01   5.91683e-01  -6.00824e-01
Si    1.39713e+00   6.74237e+00   1.30875e+00  4.88677e-01   3.36685e-01   5.05871e-01
Si    4.06670e+00   9.51893e+00   1.41863e+00 -2.15805e-01   1.11912e-01  -2.45599e+00
Si    1.39071e+00   9.50047e+00   4.07631e+00 -2.84084e-01   2.28680e-01   9.43877e-01
Si    3.98666e+00   6.80510e+00   4.08194e+00  9.65962e-01  -2.69971e-01  -3.02314e-01
Si    5.34246e+00   5.37533e+00   8.55154e-02  4.69690e-01   9.12090e-01  -6.52963e-01
Si    8.12006e+00   8.20555e+00   6.30926e-02 -1.22107e-01  -4.35156e-01  -4.25528e-01
Si    5.34845e+00   8.16826e+00   2.69041e+00  1.06568e+00  -3.38358e-01   1.27336e+00
Si    8.23724e+00   5.47187e+00   2.76033e+00 -8.08267e-01  -4.70106e-01  -8.47700e-01
Si    6.73137e+00   6.79315e+00   1.35154e+00  5.42598e-01  -2.06475e-01   8.34953e-01
Si    9.54154e+00   9.53398e+00   1.40757e+00 -2.10560e-01   3.93418e-01  -4.27321e-01
Si    6.76374e+00   9.58607e+00   4.07549e+00 -7.75015e-01  -5.18448e-01  -5.61583e-01
Si    9.59691e+00   6.84488e+00   4.06543e+00 -5.06080e-01   4.77150e-01   6.63293e-01
Si   -2.77933e-03  -3.71401e-02   5.54788e+00  1.39543e-01  -4.34550e-01  -3.64186e-01
Si    2.75754e+00   2.69490e+00   5.39641e+00 -1.89271e-01  -8.56042e-02   2.40408e-01
Si    1.09295e+01   2.77074e+00   8.18760e+00 -1.80207e-01  -8.55381e-01  -1.34605e-01
Si    2.78199e+00  -1.14806e-01   8.19120e+00  7.40937e-02   5.21376e-01  -2.52604e-01
Si    1.41008e+00   1.33889e+00   6.84909e+00  3.34938e-01  -2.57048e-02  -2.65827e-02
Si    4.08044e+00   4.13887e+00   6.74331e+00 -2.10879e-01  -7.44642e-01  -2.54412e-01
Si    1.43645e+00   4.16047e+00   9.44332e+00 -1.69411e-01  -4.46900e-01   2.68490e-01
Si    4.16922e+00   1.29349e+00   9.56203e+00 -2.10050e+00   1.05994e+00  -1.19699e+00
Si    5.37231e+00  -8.66327e-03   5.46715e+00  5.43348e-01   6.18191e-01   2.08397e-01
Si    8.11944e+00   2.69710e+00   5.48591e+00  6.99126e-01   1.56155e-01   5.09835e-01
Si    5.32139e+00   2.83765e+00   8.23265e+00  1.11018e+00  -1.06084e-01  -1.53877e-01
Si    8.08874e+00   2.18250e-02   8.19597e+00 -6.32323e-01   7.17784e-02  -2.72993e-01
Si    6.68734e+00   1.47352e+00   6.88312e+00  7.74630e-02  -1.09513e+00  -3.03670e-01
Si    9.53890e+00   4.07198e+00   6.86043e+00 -5.93354e-01  -2.44578e-01  -8.10334e-01
Si    6.80568e+00   4.21899e+00   9.50069e+00 -2.29455e-01  -1.30719e+00   4.01193e-01
Si    9.53354e+00   1.32717e+00   9.48229e+00  4.92217e-01   4.37621e-01   2.75652e-01
Si    1.08605e+01   5.39036e+00   5.45929e+00 -2.13794e-01   5.64327e-01  -1.68042e-01
Si    2.70377e+00   8.10781e+00   5.47784e+00 -4.55871e-02   5.93533e-01  -5.98925e-01
Si    1.07802e+01   8.08207e+00   8.12921e+00  3.15322e-01  -4.43848e-02   3.54713e-01
Si    2.77116e+00   5.48114e+00   8.07093e+00 -6.99881e-02   4.50755e-01   5.75625e-01
Si    1.35793e+00   6.77217e+00   6.75373e+00 -6.40361e-01  -3.62526e-02   6.15387e-01
Si    4.14304e+00   9.35473e+00   6.81514e+00 -9.45773e-01   1.39448e+00  -2.24176e-01
Si    1.33720e+00   9.41738e+00   9.48953e+00  2.01646e-01  -6.18997e-02  -6.20326e-01
Si    4.11266e+00   6.81558e+00   9.50837e+00  8.18668e-02  -1.26211e+00  -3.63078e-01
Si    5.41998e+00   5.40098e+00   5.33158e+00 -3.47187e-01   3.78322e-01   6.53532e-02
Si    8.08161e+00   8.23860e+00   5.41950e+00  6.81395e-01  -1.22771e+00  -7.63864e-01
Si    5.46390e+00   8.11209e+00   8.16731e+00  2.50108e-01  -1.23265e+00  -8.10096e-01
Si    8.12477e+00   5.48540e+00   8.05632e+00  5.52347e-02   1.82349e-01   5.15835e-01
Si    6.73844e+00   6.76188e+00   6.64424e+00  2.62376e-01   6.61394e-01   1.05897e+00
Si    9.38190e+00   9.47487e+00   6.85829e+00  8.63334e-01   5.70622e-01  -1.65323e-01
Si    6.70095e+00   9.45961e+00   9.48546e+00  1.63818e+00   6.47323e-01   5.48256e-01
Si    9.43500e+00   6.75792e+00   9.56825e+00  3.38898e-01   2.63020e-01  -3.33512e-01
