64
Lattice="10.862 0 0 0 10.862 0 0 0 10.862 " PBC="1 1 1" Properties=species:S:1:pos:R:3:force:R:3 Energy="-272.38822"
Si    1.08588e+01   5.98270e-02   1.08339e+01  3.43929e-01  -4.22571e-01  -1.12158e+00
Si    2.64063e+00   2.75455e+00   6.26503e-03  5.86101e-01   2.72984e-01  -5.34846e-02
Si    1.08293e+01   2.66054e+00   2.72508e+00 -8.90329e-01   7.44633e-01  -1.45478e-01
Si    2.68099e+00   8.34099e-02   2.67757e+00  6.04897e-01  -1.17256e-02  -3.62102e-01
Si    1.27351e+00   1.42682e+00   1.33970e+00  8.07312e-01  -6.50836e-01  -2.02718e-01
Si    3.93007e+00   4.04470e+00   1.54326e+00  9.40736e-01  -4.82403e-01  -1.15003e+00
Si    1.25493e+00   4.02798e+00   4.10946e+00  3.19568e-01   2.04597e-01   2.24133e-02
Si    4.11736e+00   1.36952e+00   4.00815e+00 -4.92915e-01  -2.11035e-01   4.15750e-01
Si    5.36395e+00   1.08066e+01   1.08354e+01  1.45855e+00  -5.98080e-01   1.04161e+00
Si    8.20873e+00   2.68008e+00   1.07865e+01 -1.08043e+00   1.22081e-02  -7.80778e-01
Si    5.48953e+00   2.63589e+00   2.65559e+00  1.16834e-01   7.57633e-01   2.59173e-01
Si    8.13561e+00   1.08648e+01   2.70083e+00 -1.87531e-01  -7.09360e-01  -6.16191e-01
Si    6.83885e+00   1.33345e+00   1.25746e+00 -5.14252e-01  -4.77131e-01   3.13186e-02
Si    9.44082e+00   3.99748e+00   1.30264e+00  1.37015e+00   7.63674e-01   1.04953e+00
Si    6.92353e+00   3.91099e+00   4.07708e+00 -1.80709e+00   1.41574e+00  -7.52295e-01
Si    9.50450e+00   1.26005e+00   4.03926e+00  2.78020e-02   9.52128e-01   5.64478e-01
Si    1.08402e+01   5.44679e+00   1.08841e+01 -2.29957e-01  -1.83672e-01  -4.85507e-01
Si    2.71367e+00   8.16029e+00   8.76072e-05  7.38115e-02   6.31216e-01   2.30652e-01
Si    9.91343e-02   8.17211e+00   2.65050e+00 -5.84910e-01   5.44972e-01  -3.62137e-01
Si    2.64666e+00   5.41757e+00   2.87118e+00 -2.06337e-01   5.05405e-01  -5.96706e-01
Si    1.43517e+00   6.75365e+00   1.30652e+00 -5.60923e-01  -3.22905e-02   9.93973e-01
Si    4.06453e+00   9.46998e+00   1.43941e+00 -2.69958e-01   3.75733e-01  -6.92532e-01
Si    1.41276e+00   9.60419e+00   4.02721e+00 -4.62066e-01  -8.61720e-01   1.44904e+00
Si    4.06902e+00   6.77660e+00   4.14486e+00 -1.74574e-01   6.53987e-01  -7.53480e-01
Si    5.34650e+00   5.35303e+00   1.43459e-01  1.63756e-02   3.86521e-01  -6.11082e-01
Si    8.09133e+00   8.11221e+00   8.21488e-02 -2.51652e-03  -8.56368e-02  -3.67421e-01
Si    5.46351e+00   8.10738e+00   2.73965e+00 -6.65306e-01  -2.63228e-01   3.19412e-01
Si    8.22826e+00   5.38012e+00   2.80480e+00 -4.98757e-01  -3.70645e-01  -1.11350e+00
Si    6.77228e+00   6.67359e+00   1.43336e+00  4.45296e-01   3.48517e-01   2.81016e-01
Si    9.50907e+00   9.57720e+00   1.25082e+00  4.73690e-02  -1.02853e+00   1.52154e+00
Si    6.75746e+00   9.50616e+00   4.07080e+00  3.58038e-01   3.13602e-01  -2.25374e-01
Si    9.58485e+00   6.80937e+00   4.01512e+00 -2.51138e-02   3.85870e-01   5.77101e-01
Si    1.79339e-02   8.81050e-02   5.49219e+00  4.12601e-01  -7.88353e-01  -2.40853e-01
Si    2.74203e+00   2.73819e+00   5.35331e+00  3.35229e-02  -7.68207e-02   5.50203e-01
Si    1.09014e+01   2.76925e+00   8.16821e+00 -7.23662e-02   4.77258e-01  -2.78659e-01
Si    2.73521e+00  -3.26790e-02   8.17435e+00  8.59602e-01   7.49893e-01  -3.11940e-01
Si    1.42446e+00   1.47324e+00   6.84920e+00  1.15864e-01  -1.01177e+00  -4.99555e-01
Si    4.07815e+00   4.13453e+00   6.69936e+00 -2.31650e-02  -2.31669e-01   8.08965e-01
Si    1.39950e+00   4.21355e+00   9.44279e+00 -3.39225e-01  -6.95881e-01   6.79132e-01
Si    4.13327e+00   1.35833e+00   9.59984e+00 -2.16470e+00   3.72138e-01  -8.13762e-01
Si    5.41756e+00   2.63672e-02   5.42062e+00  1.18189e-01  -7.56049e-02   3.52440e-01
Si    8.15711e+00   2.62797e+00   5.41969e+00  7.32963e-01  -5.90057e-01   1.50165e+00
Si    5.34559e+00   2.80640e+00   8.26465e+00  4.14327e-01   5.67139e-02  -1.16966e+00
Si    8.06570e+00  -2.84603e-02   8.13785e+00  2.41153e-02   3.30595e-01   1.63721e-01
Si    6.68281e+00   1.40112e+00   6.89858e+00  3.94459e-01   4.99361e-02  -8.66617e-01
Si    9.52629e+00   4.07672e+00   6.77696e+00 -2.75131e-01  -8.49837e-01  -2.44654e-01
Si    6.78484e+00   4.14630e+00   9.51675e+00  1.03224e-01  -4.62356e-01   5.17763e-01
Si    9.52365e+00   1.33257e+00   9.38276e+00 -1.01735e-01   1.06367e-01   6.58949e-01
Si    1.08433e+01   5.44012e+00   5.45848e+00  1.36715e-01   3.01241e-01  -3.32380e-01
Si    2.75347e+00   8.16756e+00   5.51212e+00 -7.33324e-01   3.52378e-01  -1.27205e+00
Si    1.07939e+01   8.16199e+00   8.13452e+00 -8.15744e-01   2.47722e-01  -1.36025e-02
Si    2.77209e+00   5.54803e+00   8.10651e+00  8.38249e-02   1.46974e-01   5.94351e-02
Si    1.30163e+00   6.85099e+00   6.78829e+00  4.63874e-01  -3.32985e-01   1.20453e-01
Si    4.15513e+00   9.45599e+00   6.79872e+00 -8.77064e-02   5.50529e-01   7.34083e-01
Si    1.35371e+00   9.47853e+00   9.44977e+00 -4.24798e-01   3.55749e-01   9.16751e-01
Si    4.11608e+00   6.86986e+00   9.60124e+00  2.92793e-01  -1.36302e+00  -7.51047e-01
Si    5.45814e+00   5.40686e+00   5.31434e+00  1.15485e+00  -8.71039e-01   6.98932e-01
Si    8.15022e+00   8.15943e+00   5.35892e+00  7.37423e-02  -5.45354e-01  -3.09628e-02
Si    5.53692e+00   8.05207e+00   8.14020e+00 -5.14720e-01   2.33252e-01  -2.68899e-01
Si    8.17302e+00   5.41506e+00   8.07852e+00 -2.73736e-01  -8.13554e-02   8.50340e-01
Si    6.85992e+00   6.70628e+00   6.71155e+00 -5.44550e-01   6.17520e-01  -3.46084e-01
Si    9.38730e+00   9.55833e+00   6.73268e+00  1.34496e+00  -3.60842e-01   3.94272e-01
Si    6.78935e+00   9.43317e+00   9.51172e+00 -2.07594e-01   3.76038e-01   3.23939e-01
Si    9.40379e+00   6.78437e+00   9.53371e+00  9.55070e-01   1.32093e-01  -2.54908e-01
