64
Lattice="10.862 0 0 0 10.862 0 0 0 10.862 " PBC="1 1 1" Properties=species:S:1:pos:R:3:force:R:3 Energy="-272.64261"
Si    1.07939e+01   3.12280e-02   1.08493e+01  5.75461e-01  -1.59498e-01  -2.01420e-01
Si    2.71758e+00   2.76841e+00  -6.68198e-03 -6.21815e-02  -5.35053e-01   4.88436e-01
Si    1.08364e+01   2.74449e+00   2.66184e+00  1.42071e-01  -4.45129e-01   8.45738e-01
Si    2.69891e+00  -1.41751e-02   2.65956e+00  8.88876e-01   6.24224e-01   5.04129e-01
Si    1.33251e+00   1.36729e+00   1.34582e+00  8.33958e-02   2.36414e-01  -4.70372e-01
Si    4.04244e+00   4.00770e+00   1.43587e+00 -1.97134e-01   5.65617e-02   1.43432e-01
Si    1.30432e+00   4.07082e+00   4.13525e+00 -3.25789e-01   6.50313e-01  -8.82786e-01
Si    4.16822e+00   1.26995e+00   4.12848e+00 -1.40498e+00   5.82729e-01  -1.31948e+00
Si    5.42534e+00   1.07516e+01   1.08512e+01  8.29792e-02   5.83122e-01   1.50044e-01
Si    8.13073e+00   2.72981e+00   1.07946e+01  3.04296e-01  -2.94893e-01   7.06229e-01
Si    5.45604e+00   2.60727e+00   2.65229e+00 -1.11341e-01  -2.65439e-01   5.72997e-01
Si    8.11358e+00   1.07704e+01   2.64227e+00  8.32192e-01   7.56158e-01   4.59298e-01
Si    6.78702e+00   1.29360e+00   1.26681e+00  3.87394e-01  -7.64887e-02   1.03431e-01
Si    9.53516e+00   4.09539e+00   1.26948e+00 -6.43888e-01  -2.71273e-01   4.81593e-01
Si    6.82720e+00   3.89111e+00   4.03456e+00  1.53029e-01   1.51278e+00  -2.34554e-01
Si    9.55168e+00   1.27277e+00   4.07663e+00 -1.10383e+00   6.90670e-01  -1.02664e+00
Si    1.08679e+01   5.45453e+00   1.08272e+01  4.36138e-01   4.07553e-01   2.64220e-01
Si    2.66539e+00   8.16429e+00  -1.36416e-01 -2.61223e-01  -1.83666e-01   1.87356e+00
Si    1.35312e-01   8.15077e+00   2.73065e+00 -6.49552e-01   4.20430e-01  -6.93598e-01
Si    2.71154e+00   5.41345e+00   2.77877e+00 -5.86295e-01  -1.18567e-01  -3.67289e-01
Si    1.37711e+00   6.77910e+00   1.34849e+00  5.44345e-01  -6.19713e-02  -3.56036e-01
Si    4.01210e+00   9.46496e+00   1.30268e+00  9.24099e-02  -4.62189e-01   4.43056e-01
Si    1.45998e+00   9.50338e+00   4.05781e+00 -9.01306e-01   3.97985e-01   2.99506e-01
Si    4.01582e+00   6.77393e+00   4.13015e+00  4.16755e-01  -2.20073e-01   8.91208e-01
Si    5.32886e+00   5.31774e+00   5.22903e-02  1.15388e+00   1.11311e+00   1.40878e-01
Si    8.13449e+00   8.08537e+00   1.66607e-02 -4.27666e-01   4.98532e-01  -2.57940e-01
Si    5.32277e+00   8.11678e+00   2.80397e+00  8.20342e-01   5.44234e-01  -1.06986e+00
Si    8.22221e+00   5.39379e+00   2.76254e+00 -7.17098e-01   1.00733e-01  -6.58729e-01
Si    6.73685e+00   6.76013e+00   1.40367e+00 -6.52270e-02  -5.95638e-01   3.06852e-01
Si    9.56027e+00   9.43765e+00   1.32473e+00 -3.77263e-01  -3.36644e-02   4.33989e-01
Si    6.76495e+00   9.53049e+00   4.08819e+00 -3.38929e-01  -8.05954e-01   2.78639e-01
Si    9.57885e+00   6.87778e+00   4.01643e+00 -5.35276e-01  -7.89383e-01   1.12164e+00
Si    9.92476e-03  -5.20523e-02   5.39941e+00  5.73329e-01  -1.59273e-02   8.86843e-01
Si    2.80111e+00   2.81735e+00   5.33308e+00  1.69967e-01  -1.17264e+00   1.33511e+00
Si    1.09882e+01   2.77999e+00   8.18691e+00 -7.90671e-01   6.94961e-01  -4.62980e-01
Si    2.72480e+00   7.75248e-02   8.20504e+00  8.09856e-03  -1.40688e-01  -6.26811e-02
Si    1.40493e+00   1.41420e+00   6.73525e+00  1.80065e-01  -7.63978e-02  -1.52883e-01
Si    4.13417e+00   4.16132e+00   6.78873e+00 -5.48222e-01  -4.60272e-01  -6.51488e-01
Si    1.49780e+00   4.25200e+00   9.51933e+00 -1.04200e+00  -1.48971e+00  -3.49456e-01
Si    4.15273e+00   1.38237e+00   9.61220e+00 -1.22053e+00  -1.56371e-01  -6.92196e-01
Si    5.37477e+00  -7.11977e-02   5.53168e+00  1.01150e+00   3.24498e-01  -2.01817e-01
Si    8.16232e+00   2.67933e+00   5.45060e+00  2.64074e-01  -6.45029e-01   6.07246e-01
Si    5.33990e+00   2.76646e+00   8.18076e+00  7.25428e-01   2.83740e-01   5.22759e-01
Si    8.08680e+00   8.52399e-02   8.09939e+00 -2.83346e-01  -5.97788e-01   7.05468e-01
Si    6.62882e+00   1.41849e+00   6.84769e+00  1.24336e+00  -2.44655e-01  -9.30440e-01
Si    9.49344e+00   4.16577e+00   6.79834e+00  2.01887e-01  -1.72167e+00   4.88649e-01
Si    6.78229e+00   4.07911e+00   9.52333e+00 -5.96844e-01   3.11077e-01  -6.24077e-01
Si    9.50022e+00   1.40497e+00   9.45757e+00  1.82967e-01   6.73779e-02  -2.37250e-01
Si    1.08215e+01   5.48489e+00   5.50112e+00  5.25088e-01   2.38231e-01  -1.24308e+00
Si    2.71327e+00   8.23486e+00   5.49885e+00  2.94917e-01  -1.27647e+00  -4.01011e-02
Si    1.08399e+01   8.17337e+00   8.12447e+00 -3.57165e-01  -3.45525e-01   5.49614e-02
Si    2.74593e+00   5.50615e+00   8.06982e+00  9.36057e-01   2.81205e-01   9.15972e-01
Si    1.36422e+00   6.79196e+00   6.80479e+00 -3.97260e-01   1.11758e+00  -3.76490e-01
Si    4.06803e+00   9.49633e+00   6.89767e+00 -4.13161e-01   3.26544e-02   2.90436e-01
Si    1.29541e+00   9.52203e+00   9.47476e+00  4.52838e-02   8.93054e-01  -2.17137e-01
Si    4.06712e+00   6.79117e+00   9.58643e+00  4.59288e-02  -7.95671e-01  -1.22239e+00
Si    5.54460e+00   5.37785e+00   5.38781e+00 -9.18537e-01   4.93965e-02  -6.80851e-01
Si    8.16178e+00   8.16143e+00   5.44091e+00 -4.19228e-01  -1.95649e-01  -8.83648e-01
Si    5.41210e+00   8.09057e+00   8.19879e+00  1.74361e-01  -3.97959e-01  -8.49653e-01
Si    8.12726e+00   5.45631e+00   8.13144e+00 -2.01520e-01   8.22428e-02   5.38826e-01
Si    6.78858e+00   6.76174e+00   6.72728e+00  1.17646e-01   6.65056e-01   8.76263e-01
Si    9.41515e+00   9.51253e+00   6.80334e+00  1.03669e+00   5.35417e-01  -1.50808e-01
Si    6.74055e+00   9.46744e+00   9.45846e+00  1.38335e+00   1.02233e-01   3.88267e-01
Si    9.50594e+00   6.78574e+00   9.51019e+00 -1.36105e-01   1.97024e-01  -5.51539e-01
