64
Lattice="10.862 0 0 0 10.862 0 0 0 10.862 " PBC="1 1 1" Properties=species:S:1:pos:R:3:force:R:3 Energy="-267.16594"
Si    3.98266e-02   3.34096e-02  -1.16478e-01  2.09756e-03  -5.47222e-01   5.68958e-01
Si    2.74545e+00   2.67602e+00   5.51509e-02  1.09465e-01  -2.04602e-01  -7.45128e-01
Si    1.07782e+01   2.80052e+00   2.58075e+00 -7.80426e-01   1.45147e-01   5.21010e-01
Si    2.63706e+00   1.58000e-01   2.75210e+00  1.96975e-01   4.25059e-01  -2.50468e-02
Si    1.24649e+00   1.44637e+00   1.35966e+00  8.94812e-01  -9.32409e-01  -8.35566e-01
Si    4.12649e+00   3.97797e+00   1.42700e+00  3.45988e-01   1.25987e+00  -5.00261e-01
Si    1.28027e+00   4.12882e+00   3.93573e+00  1.28610e+00  -3.28502e-02   9.95604e-01
Si    4.16578e+00   1.54845e+00   3.92715e+00 -8.51278e-01  -2.27221e+00   2.09792e+00
Si    5.37477e+00   1.06946e+01  -1.11788e-01 -1.00865e+00   1.37268e+00   8.92506e-01
Si    7.94620e+00   2.61322e+00  -1.15570e-01  2.53394e-01  -5.48826e-02   4.57349e-01
Si    5.64153e+00   2.57087e+00   2.61040e+00 -1.15639e+00   1.53731e+00  -2.38255e-01
Si    8.11432e+00   1.08157e+01   2.66411e+00  1.11148e+00   8.90431e-01   8.26283e-01
Si    6.73066e+00   1.13493e+00   1.24778e+00  5.79827e-01   3.52874e-01  -5.20925e-01
Si    9.28032e+00   4.00441e+00   1.19109e+00  8.96014e-01  -1.83659e-01   3.25546e-01
Si    6.81248e+00   3.89712e+00   4.08544e+00  6.65947e-01   1.99679e+00  -7.49754e-01
Si    9.58985e+00   1.35182e+00   4.00465e+00 -6.66001e-01  -3.04707e-01  -4.51013e-01
Si    1.07598e+01   5.34914e+00   1.08516e+01  1.39590e+00  -5.26533e-01   7.04812e-01
Si    2.70262e+00   8.13310e+00   1.10575e+01 -1.02677e+00  -6.50679e-01  -7.55315e-01
Si    6.17325e-02   8.18023e+00   2.73821e+00 -1.07005e+00   4.69905e-01   9.96232e-01
Si    2.77333e+00   5.52810e+00   2.70140e+00  1.33021e-01  -1.51704e+00   4.12229e-01
Si    1.21338e+00   6.72276e+00   1.47583e+00  1.22232e+00  -7.61277e-02  -1.77872e+00
Si    3.89405e+00   9.64969e+00   1.40436e+00  1.41452e+00  -3.56218e-01   2.35134e-02
Si    1.42827e+00   9.55100e+00   4.09667e+00 -1.55169e-01  -8.76020e-01   5.16761e-01
Si    4.18312e+00   6.75432e+00   4.14744e+00  7.33627e-01   3.25764e-01  -4.67094e-01
Si    5.39223e+00   5.54958e+00   1.08864e+01 -1.29021e+00  -7.38263e-02   6.88340e-01
Si    8.16632e+00   8.10966e+00   1.07391e-01  7.81395e-01   7.59405e-01   8.77520e-01
Si    5.40142e+00   8.40018e+00   2.73539e+00 -8.01485e-01  -8.66807e-01   1.41518e+00
Si    8.06433e+00   5.39900e+00   2.55610e+00 -5.82755e-01   4.78548e-01   2.02390e+00
Si    6.62911e+00   6.95944e+00   1.42223e+00  1.11780e+00  -1.10162e+00  -2.66979e-01
Si    9.60692e+00   9.59352e+00   1.40119e+00 -4.13864e-01  -1.14742e+00  -1.00497e+00
Si    6.84828e+00   9.61726e+00   4.17935e+00 -1.69129e+00   3.76322e-01  -3.47832e-01
Si    9.51700e+00   6.74049e+00   4.03938e+00 -1.44043e+00   1.39632e+00  -1.14685e+00
Si    1.09123e+01   1.08908e+01   5.44273e+00  5.26200e-01   4.89247e-01  -8.93228e-01
Si    2.77228e+00   2.76657e+00   5.38807e+00 -1.10743e+00   6.49584e-01  -1.23006e+00
Si   -1.04675e-01   2.71107e+00   8.18539e+00  1.46628e+00  -1.41690e+00  -9.58528e-01
Si    2.72437e+00  -5.28109e-02   8.12980e+00  5.72192e-01   8.47944e-02  -2.10069e-01
Si    1.43610e+00   1.39789e+00   6.74391e+00 -8.89670e-01   2.30112e-02   1.06650e+00
Si    3.98718e+00   4.13445e+00   6.76933e+00  9.60210e-01   5.47204e-01   1.30700e+00
Si    1.32440e+00   3.93188e+00   9.50868e+00  1.63933e-01   1.49316e+00   8.85887e-01
Si    4.14643e+00   1.38666e+00   9.42540e+00 -3.98862e-01  -2.18421e-01   2.62507e-01
Si    5.35785e+00   9.44507e-02   5.57677e+00  5.71980e-01   2.10060e-01  -2.29592e+00
Si    8.25423e+00   2.68974e+00   5.36316e+00  3.26801e-01  -5.13072e-01   9.65826e-01
Si    5.51091e+00   2.88337e+00   8.13205e+00 -8.26739e-01  -1.33256e+00  -7.08667e-01
Si    8.05972e+00  -5.73569e-02   8.09326e+00  1.28073e+00  -7.56230e-01   6.40780e-01
Si    6.87915e+00   1.35879e+00   6.78702e+00 -1.01160e+00   1.58856e+00   8.95320e-02
Si    9.63808e+00   4.06293e+00   6.73081e+00 -1.48350e+00   3.54931e-01  -9.15273e-02
Si    6.70075e+00   4.20839e+00   9.57962e+00  8.59803e-01  -7.56371e-01  -5.64853e-01
Si    9.38671e+00   1.30096e+00   9.46483e+00  2.50131e-01   6.95101e-02  -3.80467e-01
Si    1.08593e+01   5.51495e+00   5.35136e+00  4.91647e-01  -1.80481e+00   5.12580e-01
Si    2.66041e+00   7.93712e+00   5.44373e+00  5.00799e-01   1.78282e+00   4.14080e-01
Si    1.07651e+01   8.12926e+00   8.13084e+00  7.50323e-01  -5.24272e-02   1.70764e-01
Si    2.65854e+00   5.48559e+00   8.28399e+00  3.36680e-01  -1.23662e+00  -5.87360e-01
Si    1.28336e+00   6.65929e+00   6.86801e+00 -9.02331e-02   1.41870e+00  -2.13898e-01
Si    4.11221e+00   9.40851e+00   6.76477e+00 -9.58895e-01  -3.48008e-01   4.46787e-01
Si    1.44707e+00   9.35596e+00   9.50468e+00 -1.12218e+00   1.05930e+00  -1.06065e-01
Si    4.02749e+00   6.94339e+00   9.51419e+00  1.27128e-01  -1.14230e+00   9.11053e-01
Si    5.60905e+00   5.35195e+00   5.57026e+00 -8.13789e-01   3.37924e-01  -1.21072e+00
Si    8.17621e+00   8.23797e+00   5.40528e+00  3.49173e-01  -2.16934e+00   1.01899e-01
Si    5.51171e+00   8.09412e+00   8.16261e+00  6.52292e-01   5.14827e-01   3.53513e-02
Si    8.26531e+00   5.31549e+00   8.25501e+00  4.99337e-01   6.91918e-01  -1.00780e-01
Si    7.00879e+00   6.70641e+00   6.90346e+00 -7.77102e-01   1.01129e+00  -6.93851e-01
Si    9.52609e+00   9.56261e+00   6.66028e+00 -2.17874e-01  -2.92794e-01   1.96756e+00
Si    6.87072e+00   9.43350e+00   9.64637e+00 -4.43187e-01  -4.41435e-01  -2.43945e+00
Si    9.52825e+00   6.78542e+00   9.64529e+00 -7.50507e-01   9.28552e-02  -1.60260e+00
