64
Lattice="10.862 0 0 0 10.862 0 0 0 10.862 " PBC="1 1 1" Properties=species:S:1:pos:R:3:force:R:3 Energy="-268.3963"
Si    5.15646e-02   6.57557e-02   6.26249e-02  6.21766e-01   1.20450e-01   4.98247e-01
Si    2.75014e+00   2.73418e+00  -9.04024e-02  4.97332e-01   2.44947e-01  -7.68521e-01
Si    1.08905e+01   2.79114e+00   2.83470e+00 -6.19709e-01   1.32998e-01  -1.54572e+00
Si    2.73813e+00   3.87121e-02   2.60558e+00 -4.09195e-01   2.21209e-01   1.23705e+00
Si    1.43688e+00   1.50365e+00   1.39392e+00 -9.71510e-01  -3.22846e-01  -4.28863e-01
Si    4.18717e+00   4.11728e+00   1.21682e+00 -7.68914e-01  -1.17880e+00   1.16380e+00
Si    1.25734e+00   4.22149e+00   4.17024e+00  1.06891e+00  -6.00253e-01   4.75295e-01
Si    3.87381e+00   1.52236e+00   4.06157e+00  5.71408e-01  -2.21398e+00   4.54924e-01
Si    5.45524e+00   1.06483e+01   1.03693e-01  1.77955e+00   2.19289e+00  -2.51435e+00
Si    8.10216e+00   2.72173e+00   6.73275e-03  1.71429e-01  -2.09219e+00   2.01192e-01
Si    5.35987e+00   2.55555e+00   2.69849e+00  7.90890e-01   2.61998e+00  -1.53482e-01
Si    8.08439e+00   1.08135e+01   2.82299e+00  1.34594e+00   6.43075e-01  -4.34871e-01
Si    6.77412e+00   1.24139e+00   1.42317e+00  2.30106e-01   3.75801e-01  -9.50183e-01
Si    9.44459e+00   4.04436e+00   1.26636e+00  1.05358e+00   6.27927e-01   1.71372e+00
Si    6.76519e+00   4.01391e+00   4.11498e+00 -1.20523e-01  -5.59111e-01  -1.43353e+00
Si    9.57537e+00   1.38088e+00   4.13403e+00 -4.21198e-01  -9.23977e-01  -4.28651e-02
Si    1.08461e+01   5.43970e+00   1.08169e+01  4.76493e-01   6.31154e-01   3.50570e-01
Si    2.82168e+00   8.15346e+00   1.09349e+01 -7.37251e-01   3.44725e-01  -7.43429e-01
Si    4.85263e-03   8.20874e+00   2.75320e+00  3.25145e-01  -5.15769e-01  -2.39245e-01
Si    2.71129e+00   5.35062e+00   2.65566e+00 -1.87101e-01  -9.15533e-01  -8.49306e-02
Si    1.44709e+00   6.82370e+00   1.41470e+00 -1.41358e+00  -2.23725e-01  -7.17818e-01
Si    4.14001e+00   9.52251e+00   1.35225e+00 -1.59323e+00  -1.88403e+00   1.99281e+00
Si    1.32722e+00   9.61910e+00   4.05165e+00  1.45622e+00  -1.21598e+00  -1.09763e-01
Si    4.02228e+00   6.45006e+00   4.12398e+00  1.31363e+00   1.70930e+00  -7.24985e-01
Si    5.54693e+00   5.47431e+00   1.08081e+01  4.94078e-04  -2.18409e-02  -7.82763e-01
Si    8.30116e+00   8.24671e+00  -4.15209e-02 -1.26324e+00  -6.36664e-01   6.11600e-01
Si    5.31062e+00   8.00134e+00   2.74060e+00 -1.42181e-01   1.23824e-01  -3.10387e-02
Si    8.07370e+00   5.41902e+00   2.68081e+00  5.98749e-01   5.80522e-01   3.70691e-01
Si    6.78740e+00   6.89715e+00   1.29324e+00  9.83555e-01  -4.08137e-01   3.60093e-01
Si    9.57448e+00   9.58035e+00   1.38789e+00 -6.35151e-01   2.85385e-02   4.90775e-01
Si    6.50903e+00   9.58710e+00   3.97173e+00 -2.60884e-01  -4.92041e-02   7.63675e-01
Si    9.47642e+00   6.87762e+00   4.12326e+00 -1.21145e+00   1.57420e-01  -1.27085e+00
Si    1.09230e+01   1.08493e+01   5.53882e+00 -1.44098e-01   1.17792e+00  -1.11334e+00
Si    2.68601e+00   2.77011e+00   5.57010e+00 -1.29125e+00   5.14634e-01  -1.87658e-01
Si   -7.99305e-02   2.58870e+00   8.18934e+00  6.92311e-01   3.33159e-01  -1.46709e-01
Si    2.72858e+00  -8.23025e-02   8.21159e+00  1.12435e+00  -9.57317e-02  -3.97316e-01
Si    1.41235e+00   1.25849e+00   6.92618e+00 -4.63692e-01   1.20029e+00  -6.19401e-01
Si    4.15022e+00   3.98003e+00   6.92516e+00 -8.35659e-01   7.20659e-01  -3.63229e-01
Si    1.28796e+00   4.09476e+00   9.36695e+00  4.80093e-01  -5.74137e-01   1.25128e+00
Si    4.19992e+00   1.22093e+00   9.47969e+00 -5.89838e-01   4.50246e-01   1.17418e+00
Si    5.16372e+00   1.51742e-02   5.46785e+00  9.69214e-01   8.77337e-01  -8.44775e-01
Si    8.21242e+00   2.74786e+00   5.41219e+00 -5.05023e-01  -3.64158e-01   1.01755e+00
Si    5.51849e+00   2.67051e+00   8.18905e+00 -1.27941e-01  -4.53936e-01   3.25369e-01
Si    8.11403e+00   4.35912e-02   8.13591e+00 -6.13512e-01  -1.20364e+00  -8.35599e-02
Si    6.73097e+00   1.35988e+00   6.74508e+00  4.94077e-01  -2.59131e-01  -5.85078e-01
Si    9.55096e+00   4.07616e+00   6.86157e+00 -7.73401e-01   3.03506e-01  -3.50360e-01
Si    6.88977e+00   4.02739e+00   9.46631e+00 -1.19143e+00   7.49569e-01   4.28222e-01
Si    9.47779e+00   1.23785e+00   9.57426e+00 -5.04332e-01   1.39655e+00   2.65492e-02
Si    1.07824e+01   5.61200e+00   5.53396e+00  1.70874e-02  -1.40007e+00  -3.80507e-01
Si    2.79684e+00   8.02242e+00   5.24996e+00 -1.50772e+00   1.25337e+00   4.81215e-01
Si    1.09456e+01   8.27611e+00   8.04945e+00 -5.41065e-01  -4.20316e-01   8.78364e-01
Si    2.71319e+00   5.44727e+00   8.10773e+00  6.29349e-01   4.90441e-01   3.23151e-01
Si    1.41026e+00   6.84501e+00   6.70622e+00  2.82678e-01   4.22309e-01   8.76903e-01
Si    3.97817e+00   9.36748e+00   6.75767e+00  1.64097e-01   1.57502e-01   4.08602e-01
Si    1.42494e+00   9.57195e+00   9.60459e+00 -6.20448e-01  -1.32762e+00   1.13617e-02
Si    4.13534e+00   6.85654e+00   9.50869e+00 -6.01542e-01  -1.51634e+00  -3.13609e-01
Si    5.45327e+00   5.27196e+00   5.51941e+00  3.05303e-01   6.61001e-01   8.69000e-02
Si    8.01854e+00   8.41507e+00   5.24316e+00  6.80980e-01  -1.80556e+00   1.22336e+00
Si    5.44435e+00   8.03712e+00   8.03955e+00 -9.25650e-03   8.16920e-01   2.57423e-02
Si    8.11335e+00   5.45575e+00   8.16643e+00  1.17614e+00   2.93785e-01  -7.44156e-01
Si    6.86545e+00   6.80939e+00   6.68552e+00 -3.12858e-01  -1.63633e-01  -4.65829e-01
Si    9.46454e+00   9.59259e+00   6.70514e+00 -4.24880e-01  -5.18380e-01   9.10007e-01
Si    6.77276e+00   9.35407e+00   9.44633e+00  4.55834e-01   1.38813e+00  -1.51226e-02
Si    9.51497e+00   6.86016e+00   9.45180e+00  1.05636e+00  -9.73987e-02  -5.45333e-01
