64
Lattice="10.862 0 0 0 10.862 0 0 0 10.862 " PBC="1 1 1" Properties=species:S:1:pos:R:3:force:R:3 Energy="-266.77344"
Si   -1.32998e-01  -3.36409e-03   8.51595e-02  7.32228e-01  -2.07693e-01  -2.03533e+00
Si    2.69706e+00   2.65539e+00  -3.34464e-03  4.03247e-01   9.68344e-01  -6.86385e-01
Si    1.08966e+01   2.73318e+00   2.56125e+00 -4.40387e-01  -1.07259e+00   1.18860e+00
Si    2.79938e+00   4.24328e-02   2.79940e+00 -1.24252e+00   4.84925e-03  -2.06434e+00
Si    1.34934e+00   1.29971e+00   1.25364e+00  6.00725e-01  -1.37687e-01   1.72398e+00
Si    3.99878e+00   4.11751e+00   1.44223e+00  2.86047e-01  -8.82736e-02  -1.21755e+00
Si    1.27674e+00   4.05442e+00   4.08376e+00  8.53824e-01  -4.32820e-01  -1.66768e+00
Si    4.02815e+00   1.46356e+00   4.02022e+00  1.08856e+00  -2.22997e-01   2.18024e+00
Si    5.62922e+00   1.08879e+01  -1.12126e-01 -1.88092e+00  -8.97950e-01   1.67484e+00
Si    7.95588e+00   2.67558e+00   1.23894e-01  8.55775e-01   1.88714e+00  -2.03149e+00
Si    5.41295e+00   2.70396e+00   2.70463e+00 -1.79275e-01   7.94441e-01  -1.50612e-01
Si    8.10652e+00   1.07493e+01   2.53080e+00  1.80462e-01   3.97372e-01   2.53247e+00
Si    6.78624e+00   1.37454e+00   1.41763e+00 -1.27794e+00  -1.15664e+00  -6.80991e-02
Si    9.38894e+00   3.99814e+00   1.34490e+00  2.09653e-02   1.33780e-01   5.80881e-01
Si    6.78377e+00   4.00288e+00   4.06319e+00  1.89296e+00  -2.74984e-01  -1.51571e-01
Si    9.60856e+00   1.15357e+00   3.90150e+00  2.11081e-01   6.36875e-01  -5.74343e-01
Si    1.08109e+01   5.26464e+00   1.09591e+01  8.83657e-01   1.06048e+00  -1.05324e+00
Si    2.63912e+00   8.19947e+00   1.10477e+01  3.31474e-01   1.49413e-01  -1.43997e+00
Si    2.68507e-02   8.28510e+00   2.66191e+00 -3.14681e-01  -1.92493e+00   7.82978e-01
Si    2.65125e+00   5.43160e+00   2.80198e+00  6.43740e-01   3.31397e-01   3.87658e-01
Si    1.32634e+00   6.72760e+00   1.41304e+00 -7.32808e-01   2.33702e-01   8.08477e-02
Si    4.13942e+00   9.53398e+00   1.43179e+00  2.74937e-01   1.19785e+00  -1.09102e+00
Si    1.38820e+00   9.56566e+00   4.02829e+00 -2.52527e-01   3.69852e-01  -1.40691e-01
Si    4.16326e+00   6.79931e+00   4.10088e+00 -5.29017e-01  -2.50602e-01  -6.42636e-01
Si    5.23222e+00   5.69728e+00   1.08938e+01  5.11653e-01  -2.39792e+00   1.70073e-01
Si    8.13461e+00   8.16269e+00  -1.41199e-01  5.31651e-01  -3.74455e-01   3.93899e-01
Si    5.45791e+00   8.25169e+00   2.78673e+00  8.89404e-01  -5.12834e-01   3.12473e-01
Si    8.16271e+00   5.46749e+00   2.68773e+00 -7.88209e-01   8.11921e-01   2.86734e-01
Si    6.71215e+00   6.96827e+00   1.22797e+00  9.16077e-01  -8.33610e-01   2.04008e+00
Si    9.44230e+00   9.44664e+00   1.29114e+00  6.03514e-02  -4.99447e-01  -3.29326e-01
Si    6.90369e+00   9.53274e+00   4.22097e+00 -8.35547e-01   5.23909e-01  -9.74476e-01
Si    9.63862e+00   6.79534e+00   4.17031e+00 -8.01109e-01   3.62460e-01  -2.17450e+00
Si    1.09288e+01   1.08408e+01   5.44567e+00 -5.68053e-01  -3.01224e-01   7.62871e-01
Si    2.71366e+00   2.87378e+00   5.39340e+00  7.04121e-01  -1.18731e+00   2.99326e-01
Si   -1.14331e-01   2.52677e+00   8.18380e+00  7.36807e-01   1.25369e+00  -9.75005e-01
Si    2.79077e+00  -1.10659e-01   8.04699e+00  1.34130e-01   4.76107e-01   4.09935e-01
Si    1.48102e+00   1.40339e+00   6.72749e+00 -9.41579e-01  -6.92488e-01   7.03399e-01
Si    4.13153e+00   4.09007e+00   6.82391e+00 -8.27135e-01   1.38322e+00   1.29863e-01
Si    1.29279e+00   4.01981e+00   9.40989e+00 -1.47544e+00  -1.92032e+00   2.25644e+00
Si    4.09388e+00   1.26327e+00   9.52706e+00 -4.72387e-01   4.06676e-01  -2.45519e-01
Si    5.48182e+00   1.43702e-01   5.53800e+00  3.73805e-01   2.67844e-01  -1.60066e+00
Si    8.35286e+00   2.49332e+00   5.31283e+00 -2.23794e+00   1.47713e+00  -1.35366e-01
Si    5.36724e+00   2.84309e+00   8.36789e+00  5.67153e-01  -1.01987e+00  -1.82655e+00
Si    8.06717e+00   1.15692e-01   8.17180e+00  6.37484e-02  -1.05463e+00   4.81267e-01
Si    6.84144e+00   1.51067e+00   6.88698e+00 -9.72025e-01   5.11022e-01  -3.42973e-01
Si    9.50364e+00   3.97279e+00   6.66236e+00  8.93339e-01   5.00069e-02   1.36096e+00
Si    6.68975e+00   4.24249e+00   9.59597e+00  3.19045e-01  -1.90555e-01   1.22852e+00
Si    9.30916e+00   1.34664e+00   9.61775e+00  8.58009e-01   7.46861e-02   3.70724e-01
Si    1.09365e+01   5.35707e+00   5.37536e+00 -9.75913e-01   8.04768e-01   1.44745e+00
Si    2.73546e+00   8.24229e+00   5.26299e+00  1.33373e+00  -5.99326e-01   1.33010e+00
Si    1.08625e+01   8.02356e+00   8.14411e+00  5.76366e-01   1.17179e+00   2.22105e-01
Si    2.44986e+00   5.38139e+00   8.15080e+00  3.41824e+00   1.68258e+00  -1.71632e+00
Si    1.40884e+00   6.86351e+00   6.59567e+00 -8.50817e-01  -7.64541e-01   1.12836e+00
Si    4.26621e+00   9.44369e+00   6.68158e+00 -1.89290e+00  -3.51643e-03   3.92828e-01
Si    1.33724e+00   9.51999e+00   9.51569e+00 -4.69972e-01  -3.10462e-01   1.88582e-01
Si    3.87672e+00   6.86476e+00   9.49763e+00 -7.82435e-01  -2.70099e-02  -6.12036e-01
Si    5.59058e+00   5.44463e+00   5.41077e+00 -1.05062e+00  -1.14389e-01   1.11278e+00
Si    8.24804e+00   8.11515e+00   5.49703e+00  1.92036e-01   7.14289e-01   7.75817e-01
Si    5.42115e+00   8.00401e+00   8.08855e+00 -3.38777e-02   1.00064e+00   7.52785e-01
Si    8.23900e+00   5.34721e+00   8.19570e+00 -4.06242e-01   8.55055e-02  -5.47054e-01
Si    6.91046e+00   6.78119e+00   6.85349e+00  1.60495e-01  -1.11309e+00  -5.30900e-01
Si    9.44678e+00   9.55890e+00   7.00258e+00  1.35601e+00  -4.21229e-01  -2.12156e+00
Si    6.80885e+00   9.45225e+00   9.37914e+00 -4.74350e-01   7.26290e-02  -3.50746e-01
Si    9.56293e+00   6.70559e+00   9.56677e+00 -1.49210e-01  -2.90969e-01  -1.91926e-01
