64
Lattice="10.862 0 0 0 10.862 0 0 0 10.862 " PBC="1 1 1" Properties=species:S:1:pos:R:3:force:R:3 Energy="-268.15308"
Si   -3.16880e-02  -1.90339e-02   6.16281e-02  3.54581e-01  -9.75141e-01   5.15446e-01
Si    2.57663e+00   2.85941e+00  -3.34597e-02  2.43675e+00  -3.78458e-01  -7.94089e-01
Si    1.10148e+01   2.70380e+00   2.77379e+00 -3.31562e-01  -5.07852e-01  -2.95005e-01
Si    2.79489e+00  -9.68612e-03   2.57273e+00 -1.29235e-01  -7.47439e-01   4.44296e-01
Si    1.43664e+00   1.38386e+00   1.25375e+00 -1.06059e+00  -4.06144e-01   1.19195e+00
Si    4.07163e+00   4.27661e+00   1.22392e+00 -6.73206e-01  -3.12136e+00   7.47847e-01
Si    1.44548e+00   4.05727e+00   4.18409e+00 -4.67462e-01  -8.33159e-01  -3.83330e-01
Si    3.97624e+00   1.45275e+00   3.97501e+00 -1.31037e+00  -6.58564e-01   1.14828e+00
Si    5.47063e+00   1.09130e+01   7.52410e-02  6.78020e-01   1.86812e-01  -8.06890e-01
Si    8.21266e+00   2.77098e+00   4.85467e-03 -3.96294e-01  -1.36814e+00   6.52385e-01
Si    5.22535e+00   2.80246e+00   2.74153e+00  2.72511e+00   1.54566e+00  -1.07150e+00
Si    8.31390e+00   1.08958e+01   2.77688e+00 -2.31530e+00  -1.21274e+00  -3.65924e-01
Si    6.84224e+00   1.44579e+00   1.52478e+00 -3.44728e-01   6.15282e-02  -9.87832e-01
Si    9.52914e+00   3.98979e+00   1.46493e+00  7.59580e-01   8.91315e-01  -4.34037e-01
Si    6.83511e+00   4.11916e+00   4.11730e+00 -1.14572e+00  -8.84467e-01  -4.26286e-01
Si    9.64288e+00   1.29953e+00   4.09518e+00  8.93789e-01   5.72200e-01   6.72275e-01
Si    1.07912e+01   5.36865e+00   1.07885e+01 -6.08109e-01   5.25051e-01   4.70721e-01
Si    2.72316e+00   8.14411e+00   1.09151e+01  3.31511e-02   1.12199e-01   3.97837e-02
Si   -1.09475e-01   8.07737e+00   2.73673e+00  1.28771e+00  -8.21941e-01  -9.11572e-01
Si    2.77277e+00   5.26193e+00   2.76977e+00 -1.75415e+00   2.27829e+00  -1.06948e+00
Si    1.29640e+00   6.69681e+00   1.30790e+00  5.20284e-01  -1.39794e-01   1.23738e+00
Si    4.28697e+00   9.40770e+00   1.37864e+00 -1.39517e+00   3.51700e-02  -6.53103e-02
Si    1.43668e+00   9.34118e+00   3.90811e+00  2.74398e-01   1.02752e+00   1.20933e+00
Si    3.91965e+00   6.75827e+00   4.03563e+00  2.18539e+00  -4.77761e-01   3.49555e-02
Si    5.45688e+00   5.47259e+00   1.08338e+01  1.01292e+00   7.29560e-01  -1.04734e+00
Si    8.13570e+00   8.11125e+00  -1.19960e-01 -1.00528e+00   3.33707e-01   1.71720e+00
Si    5.53341e+00   7.94883e+00   2.74353e+00 -8.55854e-01   2.43688e-01  -5.12252e-01
Si    8.21985e+00   5.40378e+00   2.81400e+00  2.94695e-01  -3.13495e-01  -5.47506e-01
Si    6.93044e+00   6.65768e+00   1.36196e+00 -5.15291e-01   8.59683e-01  -4.98553e-01
Si    9.42393e+00   9.36765e+00   1.38360e+00  6.26181e-01   1.34917e+00  -7.12091e-01
Si    6.71150e+00   9.44566e+00   4.01229e+00  1.16269e+00   1.62592e+00   5.53857e-01
Si    9.52984e+00   6.76234e+00   4.15761e+00 -4.40624e-01  -1.39286e-01  -3.35046e-02
Si    1.10044e+01   1.07284e+01   5.42360e+00 -5.84358e-01   1.82713e-02  -9.50470e-01
Si    2.67314e+00   2.68167e+00   5.56940e+00  6.96016e-01  -7.69688e-02   9.53330e-02
Si   -4.69029e-02   2.71243e+00   8.16329e+00 -5.46951e-01  -6.18364e-01   4.51152e-01
Si    2.65086e+00   5.75547e-02   8.25298e+00  1.63386e-01  -5.73075e-01  -1.17470e+00
Si    1.24123e+00   1.28498e+00   6.87814e+00  1.15344e+00   6.40724e-01  -4.25547e-01
Si    4.13049e+00   4.12084e+00   6.87108e+00 -2.02179e-01  -6.18806e-01  -2.08193e+00
Si    1.29758e+00   4.10875e+00   9.40777e+00  3.11696e-01   5.37197e-01  -4.04183e-01
Si    4.02691e+00   1.36953e+00   9.48331e+00  7.53084e-01   1.41024e+00   1.38020e+00
Si    5.32406e+00   1.39780e-01   5.28620e+00  9.74539e-01  -1.17337e+00   1.29984e+00
Si    8.26344e+00   2.73173e+00   5.38090e+00 -9.02305e-01  -3.84155e-01   6.99811e-01
Si    5.46899e+00   2.76174e+00   8.12582e+00 -2.76220e-01  -1.12698e-01   1.51019e+00
Si    8.20804e+00   8.80863e-02   8.17730e+00 -1.35076e+00  -1.48455e+00  -1.27244e+00
Si    6.76259e+00   1.45496e+00   6.78265e+00  9.05555e-01  -1.02477e+00  -1.13452e+00
Si    9.45828e+00   4.08197e+00   6.87020e+00  4.78306e-01   5.57216e-01  -9.84635e-01
Si    6.87129e+00   4.09554e+00   9.51215e+00 -1.09568e+00   3.68020e-02  -5.88947e-02
Si    9.53544e+00   1.26338e+00   9.57010e+00 -3.78354e-02   2.07488e+00  -1.71440e-03
Si    1.09060e+01   5.38154e+00   5.42379e+00 -1.10252e+00  -1.01470e-01   8.78331e-01
Si    2.69394e+00   7.99642e+00   5.47437e+00  2.94846e-03   2.52787e+00  -6.11239e-01
Si    1.09070e+01   8.22543e+00   8.09597e+00 -6.26029e-01  -6.68637e-01   8.39421e-01
Si    2.73805e+00   5.45331e+00   8.02459e+00 -9.70572e-01   6.97648e-01   1.87174e+00
Si    1.29134e+00   6.78417e+00   6.73926e+00  2.35121e-01  -4.51172e-01   8.85030e-01
Si    3.97914e+00   9.60891e+00   6.78384e+00  2.79181e-01  -4.15980e-01  -4.99757e-01
Si    1.37383e+00   9.54802e+00   9.55548e+00 -4.41846e-01  -7.04135e-01   3.78201e-01
Si    4.04243e+00   6.83739e+00   9.49501e+00  1.38852e-01  -3.57056e-01  -3.60490e-01
Si    5.39779e+00   5.48784e+00   5.37856e+00 -6.21337e-01  -4.76647e-01   4.99841e-01
Si    8.10923e+00   8.15226e+00   5.40376e+00 -7.82627e-01  -4.66863e-01   1.01671e+00
Si    5.38084e+00   8.21834e+00   8.13488e+00 -1.57560e+00   5.73383e-01   2.11647e-01
Si    8.05923e+00   5.51176e+00   8.12894e+00  2.62391e-01  -5.42438e-02  -1.86301e-01
Si    6.57247e+00   6.83453e+00   6.85312e+00  2.42401e+00  -1.75889e-02  -1.60626e+00
Si    9.51956e+00   9.49927e+00   6.73456e+00 -5.00719e-01   5.30160e-01   4.23001e-01
Si    6.75722e+00   9.47712e+00   9.44948e+00  5.86610e-01   1.64414e+00   6.24852e-01
Si    9.43379e+00   6.85412e+00   9.45869e+00  1.75611e+00  -8.59725e-01  -9.85426e-01
