64
Lattice="10.862 0 0 0 10.862 0 0 0 10.862 " PBC="1 1 1" Properties=species:S:1:pos:R:3:force:R:3 Energy="-268.76651"
Si   -1.67611e-01   1.11145e-02  -3.12278e-02  1.00001e+00  -7.31162e-01  -5.11079e-01
Si    2.72592e+00   2.66591e+00  -5.87583e-02 -1.22292e+00   1.05932e+00   4.41953e-01
Si    1.08941e+01   2.73407e+00   2.59693e+00  1.15595e+00  -4.57590e-01   1.67712e+00
Si    2.81455e+00   1.11330e-01   2.63335e+00 -1.76481e+00   1.19248e-01   2.25250e-01
Si    1.25626e+00   1.29293e+00   1.27612e+00  1.40173e+00   6.04264e-01  -2.11581e-01
Si    4.01479e+00   4.17322e+00   1.32852e+00  1.39503e-03   1.61359e-01  -1.01932e+00
Si    1.29849e+00   4.10944e+00   4.12711e+00  1.31893e-01  -5.70440e-01  -5.87532e-01
Si    3.98352e+00   1.54191e+00   4.00845e+00  8.99414e-01  -6.60864e-01   1.22875e+00
Si    5.42461e+00   1.08749e+01  -3.44493e-02 -5.56483e-01  -1.81303e-01   2.43577e-01
Si    8.09766e+00   2.59208e+00   9.67226e-02  5.83184e-01   1.58862e+00   1.74626e-01
Si    5.32036e+00   2.73814e+00   2.58180e+00  1.38742e+00   3.31868e-01   5.90467e-01
Si    8.07595e+00   1.07896e+01   2.62177e+00  1.29639e+00  -4.22831e-02   8.74630e-01
Si    6.75176e+00   1.31271e+00   1.36200e+00 -1.19404e+00  -1.88061e-01   1.06463e-01
Si    9.49479e+00   3.96804e+00   1.42693e+00 -1.09096e+00   8.98371e-01  -1.72178e+00
Si    6.89216e+00   3.93217e+00   3.95564e+00 -8.26882e-01   1.36090e+00  -3.85227e-01
Si    9.62655e+00   1.29023e+00   3.86943e+00 -8.50709e-01  -6.04932e-01   3.14194e-01
Si    1.07536e+01   5.34653e+00   1.08873e+01  1.30533e+00  -4.16611e-01   2.16552e-01
Si    2.55713e+00   8.05337e+00   1.10756e+01  9.65078e-01   1.05561e+00  -1.11823e+00
Si    7.49896e-02   8.25022e+00   2.68824e+00 -7.21962e-01  -8.72151e-01   6.41774e-01
Si    2.67848e+00   5.44324e+00   2.79626e+00  5.78060e-01  -3.93938e-02   1.16191e-01
Si    1.27035e+00   6.68558e+00   1.44899e+00 -6.44712e-01  -3.00211e-01   5.98661e-02
Si    4.00730e+00   9.53240e+00   1.35594e+00  9.60673e-01  -2.64254e-02  -3.66722e-01
Si    1.47388e+00   9.61409e+00   3.99688e+00  5.31358e-01  -1.09274e+00  -1.14784e-01
Si    4.20985e+00   6.72886e+00   4.11285e+00 -1.02387e+00   1.15330e+00  -3.20851e-01
Si    5.41286e+00   5.65967e+00   1.08293e+01  3.41843e-01  -2.27590e+00   4.56060e-01
Si    8.01520e+00   8.05119e+00  -4.77758e-02  1.42870e+00   1.48619e+00   3.49211e-01
Si    5.42768e+00   8.40286e+00   2.84859e+00 -3.77958e-01  -2.55495e+00  -7.87162e-01
Si    8.23270e+00   5.48460e+00   2.64710e+00 -7.70576e-01  -2.11397e-01   1.21656e+00
Si    6.74415e+00   6.91909e+00   1.45760e+00 -5.38776e-01  -3.74380e-01   3.33669e-01
Si    9.46750e+00   9.43629e+00   1.28229e+00 -8.62167e-01  -2.13335e-01   1.92486e-01
Si    6.88735e+00   9.49412e+00   4.18407e+00 -2.28921e-01   1.65143e+00   3.00958e-01
Si    9.59475e+00   6.79448e+00   4.11888e+00 -6.89684e-01   1.00204e+00  -3.96397e-01
Si    1.09150e+01   1.08052e+01   5.30427e+00 -3.12238e-01   7.32132e-01   1.20283e+00
Si    2.71821e+00   2.87672e+00   5.51801e+00 -3.54528e-01  -1.21652e+00  -2.54262e-01
Si    4.51807e-03   2.54049e+00   8.13216e+00 -1.27921e+00   1.13956e+00  -1.28442e+00
Si    2.88066e+00  -1.50524e-01   8.10893e+00 -1.63789e+00   7.04740e-01   1.01267e+00
Si    1.42835e+00   1.24467e+00   6.75531e+00  3.64424e-01   1.56552e-01  -1.14911e-02
Si    4.10043e+00   4.17305e+00   6.88602e+00 -3.25843e-01   1.55904e-02   1.28069e-02
Si    1.25304e+00   4.00327e+00   9.41172e+00  3.46162e-01   4.15023e-02   1.49548e+00
Si    4.09096e+00   1.39971e+00   9.47424e+00  5.04485e-01  -8.95200e-01  -6.02025e-01
Si    5.45598e+00   1.47221e-01   5.39998e+00 -3.59096e-01  -5.48884e-01  -9.91997e-01
Si    8.27294e+00   2.60680e+00   5.23496e+00 -8.64455e-01  -3.11542e-01   8.81688e-01
Si    5.48186e+00   2.77337e+00   8.15833e+00  9.09865e-02   7.93095e-02   3.10646e-01
Si    8.10116e+00   8.12740e-03   8.22933e+00  3.00203e-01   7.60989e-01  -1.93239e+00
Si    6.78549e+00   1.42113e+00   6.74521e+00  1.28758e+00   1.51162e-02   4.15273e-01
Si    9.42981e+00   4.03972e+00   6.64407e+00  6.51049e-01  -9.05344e-01   2.50940e+00
Si    6.92611e+00   4.02480e+00   9.58397e+00 -1.96306e+00   1.30325e+00   1.90375e-01
Si    9.35767e+00   1.39459e+00   9.53362e+00  1.22330e+00  -7.42310e-01  -4.21454e-01
Si    1.08169e+01   5.39396e+00   5.48874e+00  1.45303e-01   1.64978e-01  -1.14892e+00
Si    2.76191e+00   8.17923e+00   5.41732e+00  1.54053e-01  -6.90670e-01  -1.95376e-01
Si    1.09061e+01   8.06429e+00   8.11942e+00 -8.16738e-02   8.47393e-01   8.84800e-01
Si    2.56516e+00   5.47802e+00   8.19309e+00  1.01595e+00  -4.62769e-01  -4.63045e-01
Si    1.30297e+00   6.72988e+00   6.71916e+00  1.05016e+00   1.10839e+00   2.39373e-01
Si    4.25326e+00   9.48859e+00   6.71985e+00 -4.53818e-01  -3.83538e-01   1.10675e-01
Si    1.33208e+00   9.40965e+00   9.61512e+00  1.49155e-01   8.99431e-01  -1.15388e+00
Si    3.87272e+00   6.86252e+00   9.56050e+00  8.80870e-01   2.72683e-01  -4.77215e-01
Si    5.52402e+00   5.31756e+00   5.41631e+00  6.59373e-01   3.93023e-01   3.04775e-01
Si    8.20110e+00   8.16026e+00   5.58440e+00  3.40216e-01  -5.76682e-01  -4.08328e-01
Si    5.46701e+00   8.11429e+00   8.20653e+00 -1.21075e+00   7.41406e-01   4.81506e-01
Si    8.20923e+00   5.43692e+00   8.23848e+00  1.37490e-01  -1.45904e-01  -9.69952e-01
Si    6.74683e+00   6.79101e+00   6.89002e+00  1.30609e+00  -1.15877e+00  -7.48791e-01
Si    9.58674e+00   9.56627e+00   6.89775e+00 -3.19414e-01  -1.69962e-01  -7.06977e-01
Si    6.80838e+00   9.56154e+00   9.50200e+00 -1.02669e+00  -1.29069e+00   4.96077e-01
Si    9.57871e+00   6.82238e+00   9.59729e+00 -1.02117e+00  -5.35649e-01  -9.97543e-01
