64
Lattice="10.862 0 0 0 10.862 0 0 0 10.862 " PBC="1 1 1" Properties=species:S:1:pos:R:3:force:R:3 Energy="-268.81404"
Si    1.22396e-01   4.85400e-02   2.08038e-02 -8.41597e-01  -1.61055e+00  -1.05144e+00
Si    2.75923e+00   2.71408e+00   5.38538e-03 -1.50983e+00   3.44303e-01   1.51124e+00
Si    1.07169e+01   2.70800e+00   2.74396e+00  1.20449e+00  -1.25902e+00  -3.39311e-01
Si    2.70314e+00  -2.61122e-02   2.83391e+00  6.89768e-01   5.34519e-01  -1.58392e+00
Si    1.32317e+00   1.31123e+00   1.43662e+00  1.09532e+00   1.55432e+00   4.42628e-01
Si    4.23313e+00   3.96520e+00   1.32321e+00 -1.70453e+00   4.85952e-01   1.36050e+00
Si    1.24185e+00   4.04479e+00   3.97219e+00 -5.35457e-01   7.90670e-02   1.82696e+00
Si    4.10278e+00   1.42583e+00   4.10130e+00 -8.12863e-01  -8.04780e-02  -2.00774e-01
Si    5.35917e+00   1.08788e+01  -7.08370e-02  4.89847e-01  -1.34397e-01   5.36087e-01
Si    8.22539e+00   2.83257e+00  -3.39831e-03 -4.33754e-01  -1.32058e+00   1.19180e+00
Si    5.54321e+00   2.71025e+00   2.78823e+00  3.10203e-01  -1.11000e+00  -1.15788e+00
Si    8.36070e+00   1.07755e+01   2.63969e+00 -1.83486e+00  -1.18183e+00   4.34110e-01
Si    6.86719e+00   1.18283e+00   1.38781e+00 -9.57471e-02   2.18942e+00  -8.14825e-01
Si    9.62651e+00   4.18709e+00   1.40284e+00 -2.69689e+00  -9.06874e-01   1.54579e-01
Si    6.87056e+00   4.07524e+00   4.07315e+00  5.60446e-01   5.49474e-01   2.83751e-01
Si    9.47053e+00   1.22791e+00   4.09432e+00  1.34886e+00   3.87602e-01   8.10146e-01
Si    1.07915e+01   5.41016e+00   1.08582e+01  8.78030e-01   1.03915e+00  -1.43031e+00
Si    2.69390e+00   8.07656e+00   1.07673e+01  1.03572e-01  -4.23650e-01  -5.73625e-02
Si    1.68459e-01   7.93921e+00   2.72259e+00 -1.04573e+00   5.49264e-01  -5.40700e-01
Si    2.76472e+00   5.26837e+00   2.83026e+00  7.42459e-01   2.90644e-01  -2.24116e+00
Si    1.44335e+00   6.56059e+00   1.30777e+00  4.96051e-01   9.73480e-01   3.08521e-01
Si    3.93986e+00   9.50899e+00   1.23652e+00 -1.42538e-01   1.04727e+00   4.82902e-01
Si    1.46128e+00   9.35802e+00   4.02658e+00 -1.08791e+00   2.93887e-01   1.31649e+00
Si    4.06242e+00   6.73049e+00   4.10130e+00  4.90219e-01   2.23916e-01  -3.65115e-04
Si    5.32856e+00   5.46478e+00   1.08690e+01  1.63710e+00   9.62203e-01  -9.96161e-01
Si    8.23969e+00   8.12920e+00   4.28123e-02 -1.22191e+00   3.87484e-01  -3.09515e-01
Si    5.21718e+00   8.27187e+00   2.66905e+00  1.58975e+00  -1.04828e+00   8.03651e-01
Si    8.18788e+00   5.55884e+00   2.70051e+00 -1.37495e+00  -8.98237e-01  -6.51569e-01
Si    6.69065e+00   6.94470e+00   1.34956e+00  1.69527e-01  -1.11657e+00   3.27948e-01
Si    9.67635e+00   9.39414e+00   1.31614e+00  1.00875e+00   7.85374e-02   5.01093e-01
Si    6.81332e+00   9.48608e+00   4.02743e+00 -2.34033e-01   6.16091e-01  -7.92490e-01
Si    9.47659e+00   6.76281e+00   4.09810e+00  4.31634e-01   1.12767e+00   3.79158e-02
Si    1.09043e+01   1.06969e+01   5.47556e+00 -1.25297e-01   7.26536e-01  -1.12005e+00
Si    2.59942e+00   2.77692e+00   5.37049e+00  8.85359e-01  -6.17677e-02   9.46543e-01
Si    3.82849e-02   2.84102e+00   8.25807e+00 -6.78011e-01  -1.13621e+00  -1.04828e+00
Si    2.67365e+00   1.29624e-01   8.11906e+00  1.41616e-01  -1.58704e-01  -1.64271e-02
Si    1.21687e+00   1.40271e+00   6.77321e+00  9.34798e-01   3.97180e-01   4.71834e-02
Si    4.07854e+00   4.21811e+00   6.75008e+00 -1.81198e+00  -1.67958e+00   4.70737e-01
Si    1.37706e+00   4.11288e+00   9.56000e+00  3.57793e-01   2.18525e-01   5.51312e-01
Si    4.01658e+00   1.49322e+00   9.51508e+00  9.87471e-01  -1.29015e+00  -1.25391e+00
Si    5.44777e+00   4.26494e-02   5.35711e+00  7.67044e-03  -3.43670e-01   1.37888e+00
Si    8.19287e+00   2.65323e+00   5.43651e+00 -6.11297e-01   6.00803e-01   7.16322e-01
Si    5.38254e+00   2.83148e+00   8.13592e+00 -3.25414e-01   3.78609e-01   6.85444e-01
Si    8.20034e+00   1.59787e-01   8.07562e+00 -8.70929e-01  -1.18465e+00   1.96263e+00
Si    6.68224e+00   1.46190e+00   6.85547e+00  9.08580e-01  -7.53048e-01  -1.53471e+00
Si    9.46506e+00   4.09221e+00   6.89374e+00 -2.71282e-01  -1.02691e+00  -7.34484e-01
Si    6.79932e+00   4.12050e+00   9.52302e+00 -1.09654e+00  -1.86264e-01   5.67398e-01
Si    9.58303e+00   1.39943e+00   9.54244e+00 -2.33857e-01   3.98549e-01   8.94084e-02
Si    1.06950e+01   5.36362e+00   5.42731e+00  1.97713e+00   3.44574e-01   4.00386e-01
Si    2.73960e+00   8.08422e+00   5.45964e+00 -2.47517e-01  -2.07351e-01   7.17970e-01
Si    1.09410e+01   8.04922e+00   8.19076e+00 -1.67004e+00   1.16822e+00   1.81796e-01
Si    2.62540e+00   5.48361e+00   8.15916e+00  1.34088e+00  -7.64902e-01  -1.74653e-01
Si    1.30445e+00   6.73302e+00   6.84661e+00 -2.56874e-01  -1.53762e-01  -2.30563e+00
Si    4.01582e+00   9.57397e+00   6.80211e+00 -5.96573e-02   7.19844e-01  -1.47108e+00
Si    1.42130e+00   9.49722e+00   9.41688e+00 -4.14315e-01   4.90976e-01   9.31677e-01
Si    4.11576e+00   6.84974e+00   9.30514e+00 -1.28345e+00  -1.00793e+00   2.15811e+00
Si    5.48266e+00   5.39626e+00   5.46546e+00  2.17885e-01   8.70636e-01  -1.33589e+00
Si    8.10747e+00   8.14650e+00   5.42283e+00  5.98850e-01   1.56100e-01   1.11721e+00
Si    5.33504e+00   8.20767e+00   8.02748e+00  2.20957e+00   7.86866e-01   1.17170e+00
Si    8.05770e+00   5.39581e+00   8.14414e+00  2.07690e-02   1.09918e+00  -1.89396e-01
Si    6.71424e+00   6.79485e+00   6.81758e+00  7.58492e-01   2.45949e-01  -6.05755e-01
Si    9.53992e+00   9.52116e+00   6.91470e+00 -4.13693e-01  -1.45210e+00  -1.08513e+00
Si    6.83661e+00   9.47396e+00   9.56932e+00 -2.64184e-01   8.83001e-01  -1.93537e+00
Si    9.37562e+00   6.78915e+00   9.44560e+00  1.61402e+00  -7.02341e-01   5.53536e-01
