64
Lattice="10.862 0 0 0 10.862 0 0 0 10.862 " PBC="1 1 1" Properties=species:S:1:pos:R:3:force:R:3 Energy="-268.19338"
Si   -2.40469e-02  -6.37295e-02   1.46156e-02  2.90753e-01   6.02999e-01  -3.86242e-01
Si    2.60497e+00   2.74371e+00  -9.08350e-02 -1.22633e+00   7.10558e-02   2.11825e-01
Si    1.08726e+01   2.84093e+00   2.71490e+00  2.95403e-01  -6.33792e-02   4.49521e-01
Si    2.64618e+00   1.03743e-01   2.59901e+00  6.53337e-01  -1.35664e+00   1.15098e+00
Si    1.19798e+00   1.40716e+00   1.40234e+00  1.03407e+00   2.12346e-01  -1.86477e+00
Si    3.83039e+00   4.14381e+00   1.25167e+00  1.56599e+00  -5.59641e-01   1.01544e+00
Si    1.30968e+00   4.05153e+00   4.22884e+00  8.28310e-01   4.60882e-01  -1.00824e+00
Si    4.07595e+00   1.45773e+00   3.88909e+00  3.82932e-01  -9.61007e-01   8.29633e-01
Si    5.46993e+00   1.08144e+01   4.97012e-02 -1.16347e+00   1.53459e+00   7.52759e-01
Si    8.18276e+00   2.67924e+00   1.61494e-01  1.19984e+00   3.99060e-01  -7.11240e-01
Si    5.45897e+00   2.81062e+00   2.55385e+00 -8.92724e-01   1.53418e+00   1.16121e+00
Si    8.05212e+00   1.09000e+01   2.64402e+00  1.32754e+00  -2.41055e-01   1.20842e+00
Si    6.80168e+00   1.41574e+00   1.40394e+00 -9.78748e-01  -9.81831e-01  -1.17381e+00
Si    9.59184e+00   4.15140e+00   1.36969e+00 -1.09674e+00  -1.79595e-01  -4.39019e-01
Si    6.92360e+00   4.15107e+00   4.01960e+00 -2.44546e+00  -6.18948e-01   4.14036e-01
Si    9.58748e+00   1.40982e+00   3.93071e+00 -1.12156e+00  -1.23562e+00   9.14493e-01
Si    1.07387e+01   5.47433e+00   1.07021e+01  1.66996e+00  -4.79462e-01   1.17608e+00
Si    2.73337e+00   8.02323e+00   1.10075e+01  2.85089e-01   4.02324e-01  -2.04459e-01
Si   -1.08917e-01   8.24842e+00   2.79651e+00  2.90777e-01  -2.79316e-01  -1.48054e+00
Si    2.56009e+00   5.46022e+00   2.72465e+00  1.64781e-01  -3.09855e-01   6.36576e-01
Si    1.16203e+00   6.77825e+00   1.36841e+00  1.12103e-01   3.04756e-01   2.39059e-01
Si    4.12310e+00   9.43785e+00   1.44890e+00 -9.45642e-01   9.00186e-01  -8.90608e-01
Si    1.36253e+00   9.51831e+00   4.06686e+00  1.20511e+00  -3.97133e-01  -5.38324e-01
Si    4.07119e+00   6.73584e+00   4.08786e+00  4.85182e-01  -5.76426e-02  -3.32452e-01
Si    5.42561e+00   5.30740e+00   1.08615e+01  1.03233e+00  -9.78745e-02  -1.86661e-01
Si    8.20417e+00   8.03497e+00   4.57038e-02 -1.07662e+00   7.00950e-01  -1.39315e+00
Si    5.50542e+00   8.11818e+00   2.70159e+00  9.63937e-02  -1.57628e+00   3.30903e-01
Si    8.23541e+00   5.45579e+00   2.73957e+00  8.32555e-01  -2.19868e-01  -2.89323e-01
Si    6.90136e+00   6.60673e+00   1.32834e+00 -1.58299e+00   1.43418e+00   3.62074e-01
Si    9.40979e+00   9.54949e+00   1.27827e+00  3.25956e-01  -5.91489e-01   1.56475e+00
Si    6.71801e+00   9.55920e+00   4.05867e+00  3.69829e-01   8.29733e-03   4.44450e-01
Si    9.52627e+00   6.79898e+00   4.09430e+00 -7.30919e-01   1.08345e+00   9.05220e-01
Si    1.08792e+01   1.07857e+01   5.35654e+00  4.03458e-01   2.31356e+00   1.87534e-01
Si    2.74211e+00   2.59294e+00   5.40964e+00 -2.63882e-01   6.95429e-01   6.15221e-01
Si   -8.84711e-02   2.67471e+00   8.05865e+00  8.70545e-01  -6.63537e-04  -4.53684e-03
Si    2.74611e+00   5.20950e-02   8.23098e+00 -1.49476e-01  -1.07997e+00   1.72289e+00
Si    1.43988e+00   1.22729e+00   6.84420e+00 -1.82592e+00   1.05929e+00  -1.27122e+00
Si    4.08722e+00   3.90539e+00   6.85781e+00 -2.40421e-01   1.39279e+00  -9.94954e-01
Si    1.30360e+00   4.19144e+00   9.33749e+00 -2.86607e-01  -1.33935e+00   6.69657e-01
Si    4.11707e+00   1.45892e+00   9.55971e+00  8.08868e-01  -9.49779e-01  -6.23719e-01
Si    5.34542e+00   4.76985e-02   5.44724e+00 -2.33419e-01   3.54486e-01  -1.41226e+00
Si    8.18354e+00   2.73010e+00   5.31051e+00 -3.18477e-01  -1.29941e+00  -2.17976e-01
Si    5.58927e+00   2.66921e+00   8.03496e+00 -1.14648e+00   2.28431e-01   2.68687e+00
Si    8.06718e+00  -8.68842e-02   8.17231e+00  7.55318e-01   1.26341e+00  -3.82464e-01
Si    6.76705e+00   1.34863e+00   6.71839e+00  1.88487e+00  -7.91736e-01  -6.03445e-01
Si    9.56082e+00   4.04824e+00   6.52417e+00 -2.68179e-01   5.96861e-01   2.73392e+00
Si    6.93425e+00   3.91342e+00   9.56220e+00 -1.62798e+00   6.51746e-01  -2.18873e-01
Si    9.45622e+00   1.34277e+00   9.57461e+00  1.27444e-02  -4.65931e-01  -8.95833e-01
Si    1.09441e+01   5.57216e+00   5.47009e+00 -3.60894e-01  -6.43721e-01  -1.97713e-01
Si    2.75583e+00   8.10104e+00   5.44374e+00 -5.79769e-01   1.00348e+00   4.06668e-01
Si    1.09094e+01   8.13829e+00   8.23469e+00 -3.29553e-01   9.92871e-01  -1.68358e+00
Si    2.82054e+00   5.47561e+00   8.14822e+00  6.65817e-01  -3.57091e-01   4.59931e-01
Si    1.41226e+00   6.79686e+00   6.91316e+00  2.80682e-01   7.15199e-01  -8.55744e-01
Si    3.99784e+00   9.61959e+00   6.83650e+00  7.50875e-01  -1.43398e+00  -4.32687e-01
Si    1.41156e+00   9.36909e+00   9.62659e+00  4.23425e-01   1.58108e+00  -3.79042e-01
Si    4.20577e+00   6.81333e+00   9.60903e+00 -9.72897e-01  -1.69711e-01  -9.72467e-01
Si    5.43156e+00   5.38773e+00   5.54616e+00  3.01962e-01  -1.81944e-01  -9.30270e-01
Si    8.08615e+00   8.21692e+00   5.46184e+00  3.61332e-01  -8.03092e-01  -3.12082e-01
Si    5.44088e+00   8.23873e+00   8.16489e+00 -9.00153e-01  -1.96213e-01   3.27816e-01
Si    8.18850e+00   5.27819e+00   8.19543e+00  4.72695e-01   9.32386e-01  -1.77653e+00
Si    6.76596e+00   6.81013e+00   6.91225e+00  7.83564e-01  -6.18834e-01  -5.28950e-01
Si    9.55876e+00   9.57024e+00   6.71061e+00 -7.53472e-01  -1.52094e+00   1.95700e+00
Si    6.72217e+00   9.50449e+00   9.59480e+00  1.72017e+00  -1.29702e+00  -1.99047e-01
Si    9.51516e+00   6.80064e+00   9.40764e+00 -1.42577e+00  -7.42573e-02   2.57268e-01
