64
Lattice="10.862 0 0 0 10.862 0 0 0 10.862 " PBC="1 1 1" Properties=species:S:1:pos:R:3:force:R:3 Energy="-267.34594"
Si   -1.30531e-01  -1.24979e-01  -3.53805e-02  8.92789e-01  -5.81638e-02   8.94874e-01
Si    2.58710e+00   2.76888e+00  -6.72293e-02 -1.07239e-01   1.84928e-01  -2.39612e-01
Si    1.10257e+01   2.69312e+00   2.74992e+00 -2.18606e+00   1.43784e+00  -3.02663e-01
Si    2.84820e+00   3.55553e-02   2.69923e+00 -1.89796e+00   9.05992e-02  -5.05956e-01
Si    1.30892e+00   1.36953e+00   1.35700e+00  8.36484e-01  -1.78031e+00  -1.16372e+00
Si    3.86590e+00   4.21046e+00   1.36139e+00  5.05726e-01  -2.83923e-01   1.80391e-01
Si    1.47502e+00   4.02357e+00   4.16378e+00 -8.72411e-01  -1.95924e-01   6.77486e-01
Si    4.08328e+00   1.46231e+00   4.00085e+00  6.20888e-01  -1.33425e+00   4.70111e-01
Si    5.35392e+00   1.10049e+01   7.02555e-02  5.43874e-01  -3.92210e-01  -3.88854e-01
Si    8.22072e+00   2.69906e+00  -2.79128e-02 -1.43161e+00   4.02028e-01  -1.03450e+00
Si    5.28704e+00   2.85458e+00   2.73804e+00  1.30369e+00   8.84725e-01  -1.23217e+00
Si    8.08065e+00   1.09035e+01   2.66687e+00 -4.07458e-01  -2.78071e-01   4.98684e-01
Si    6.72275e+00   1.52126e+00   1.35710e+00  1.03086e-02  -3.38827e-01   4.96903e-01
Si    9.46868e+00   4.06673e+00   1.31076e+00  2.07249e+00  -5.99592e-01   9.09657e-01
Si    6.80727e+00   4.11730e+00   4.08294e+00  7.45786e-03  -1.00656e-01  -2.59198e-01
Si    9.52276e+00   1.37031e+00   3.97764e+00  3.27267e-01  -6.92537e-01   9.84862e-02
Si    1.07624e+01   5.39436e+00   1.07322e+01  7.09020e-01   1.69853e-01   9.45348e-01
Si    2.74868e+00   8.08819e+00   1.09607e+01 -3.07603e-01  -5.75229e-01  -8.27282e-01
Si    6.25880e-02   8.18845e+00   2.71395e+00 -1.65518e+00  -4.51130e-01   8.61799e-01
Si    2.55933e+00   5.54479e+00   2.92590e+00  8.92151e-01   1.81472e-01  -2.00457e+00
Si    1.23161e+00   6.79728e+00   1.36290e+00  7.35242e-01  -1.04490e+00  -4.48038e-01
Si    4.08971e+00   9.51824e+00   1.32133e+00  5.72363e-01  -3.51481e-01   9.49862e-01
Si    1.43892e+00   9.50217e+00   4.02228e+00  3.55731e-01   5.17273e-01  -2.26178e-01
Si    3.94674e+00   6.86315e+00   4.26214e+00  1.11779e+00  -2.52730e-01  -1.15411e+00
Si    5.46360e+00   5.35636e+00   1.08298e+01 -1.42467e+00   2.48469e-01   4.62431e-01
Si    8.00670e+00   8.10165e+00  -6.94863e-02  3.75525e-01  -1.26273e+00   1.82114e+00
Si    5.37912e+00   8.08808e+00   2.76001e+00 -2.73971e-01  -1.61561e-01   6.32045e-02
Si    8.31366e+00   5.43132e+00   2.77089e+00 -1.39258e+00   2.77872e-01   3.88073e-01
Si    6.70224e+00   6.62432e+00   1.45057e+00  1.21804e+00   1.29324e+00  -5.24933e-01
Si    9.31347e+00   9.35709e+00   1.44192e+00  1.22673e+00   8.90187e-01  -1.27099e+00
Si    6.86769e+00   9.34465e+00   4.08281e+00 -2.02766e-02   1.21316e+00  -5.86516e-01
Si    9.60398e+00   6.81004e+00   4.23541e+00  6.33625e-02   5.50015e-01  -9.71625e-01
Si    1.08627e+01   1.07733e+01   5.28987e+00  3.76893e-01   9.38353e-01   7.99088e-01
Si    2.90992e+00   2.70835e+00   5.46364e+00 -1.94382e+00  -5.53235e-01   3.93899e-01
Si   -3.88925e-02   2.65536e+00   8.02298e+00  8.18326e-02  -5.67336e-01  -7.44563e-01
Si    2.66800e+00  -8.90816e-03   8.18155e+00  1.26087e+00  -1.43917e+00  -3.92586e-01
Si    1.43129e+00   1.23097e+00   6.72945e+00 -8.72941e-01   1.33392e+00  -8.64206e-01
Si    4.19326e+00   4.06152e+00   6.76112e+00 -2.62749e-01  -2.11830e-01   1.33375e+00
Si    1.21736e+00   4.07910e+00   9.27566e+00  1.14496e+00   7.13949e-02   1.50965e+00
Si    3.99768e+00   1.35388e+00   9.48408e+00 -2.12719e-01   7.48613e-01   7.94588e-01
Si    5.49758e+00   1.32668e-02   5.21009e+00 -5.07451e-01  -5.45363e-01   8.02201e-01
Si    8.15184e+00   2.63450e+00   5.34842e+00 -1.21270e-01   1.06120e+00   5.58149e-01
Si    5.44155e+00   2.67055e+00   8.22497e+00  1.47861e-01  -2.95318e-01  -1.82996e+00
Si    8.15078e+00   2.09461e-02   8.08183e+00 -5.39784e-02  -7.77971e-01  -1.86649e-01
Si    6.73312e+00   1.28539e+00   6.65727e+00  5.73713e-01   9.75048e-01   1.19550e+00
Si    9.47235e+00   4.10000e+00   6.74047e+00  6.37079e-01  -5.45489e-01  -1.03622e+00
Si    6.78269e+00   4.11663e+00   9.41597e+00  1.20977e+00  -1.21702e+00   9.53115e-01
Si    9.51193e+00   1.31778e+00   9.41526e+00 -3.02107e-02   2.35910e-01   5.23151e-01
Si    1.10355e+01   5.48417e+00   5.49264e+00 -4.95340e-01  -9.48607e-01   1.99373e-01
Si    2.71460e+00   8.28483e+00   5.53492e+00  1.47737e+00   1.07680e+00  -4.91424e-01
Si    1.09000e+01   8.05794e+00   8.13924e+00  9.76789e-01  -5.14505e-01   2.45415e-02
Si    2.76603e+00   5.39918e+00   8.08197e+00  6.10304e-01  -5.65952e-01   2.83305e-01
Si    1.62140e+00   6.82271e+00   6.75703e+00 -2.87264e+00  -2.15166e-01   1.14511e+00
Si    4.27275e+00   9.56847e+00   6.79819e+00 -1.67228e+00   5.22432e-01   3.56606e-01
Si    1.41054e+00   9.35865e+00   9.52993e+00 -8.52180e-01   1.00007e+00   2.22344e-01
Si    4.06399e+00   6.72330e+00   9.50151e+00 -3.04099e-01   4.48655e-02   1.21873e+00
Si    5.41781e+00   5.45483e+00   5.45172e+00  6.44731e-01   9.11338e-01   1.71721e-01
Si    8.19480e+00   8.15433e+00   5.62558e+00 -5.48451e-01  -9.19618e-01  -6.88556e-01
Si    5.38577e+00   8.21653e+00   8.37966e+00  9.20219e-01   8.07023e-01  -7.12765e-01
Si    8.10127e+00   5.43777e+00   8.02404e+00  1.09512e-01   1.35941e-01   1.22282e+00
Si    6.65195e+00   6.86150e+00   6.96295e+00  6.24094e-01   3.34369e-02  -1.47399e+00
Si    9.65168e+00   9.46843e+00   6.81430e+00 -1.01639e+00   9.06013e-01   2.38048e-01
Si    6.82540e+00   9.67319e+00   9.66221e+00 -1.05766e+00  -1.13428e-01  -1.43838e+00
Si    9.43259e+00   6.75438e+00   9.46141e+00 -3.81725e-01   4.40221e-01  -6.63946e-01
