64
Lattice="10.862 0 0 0 10.862 0 0 0 10.862 " PBC="1 1 1" Properties=species:S:1:pos:R:3:force:R:3 Energy="-267.33492"
Si   -5.60156e-02  -5.60092e-02   8.59872e-02  1.22986e+00  -2.10562e-01  -1.17091e+00
Si    2.65451e+00   2.68224e+00   9.95219e-02  7.17777e-01   6.89615e-01   3.09528e-01
Si    1.08826e+01   2.72158e+00   2.75719e+00 -1.82750e-01  -5.99171e-01  -1.44005e+00
Si    2.71768e+00  -1.35569e-01   2.67689e+00  1.73570e+00   3.58634e-01  -2.02621e-01
Si    1.36497e+00   1.21537e+00   1.39425e+00 -5.73612e-01   1.19171e+00   4.20908e-01
Si    4.07622e+00   4.07749e+00   1.48096e+00 -8.96963e-01  -1.15777e-02  -1.03387e+00
Si    1.38474e+00   4.08103e+00   3.95014e+00  9.64600e-01  -5.79769e-02   7.64839e-01
Si    4.11458e+00   1.27974e+00   4.10166e+00 -1.17481e+00  -3.96792e-01   8.07063e-02
Si    5.59211e+00   1.09527e+01  -1.28699e-01 -8.21091e-01  -1.88467e-01   1.35799e+00
Si    8.25381e+00   2.84570e+00   8.41452e-02 -1.92597e-01   4.18101e-01  -5.67014e-01
Si    5.37938e+00   2.73075e+00   2.83325e+00  1.11372e+00  -4.38500e-01  -1.04515e+00
Si    8.15449e+00   1.09302e+01   2.71861e+00 -4.61667e-01  -1.42992e+00   1.72381e-02
Si    6.89884e+00   1.50339e+00   1.36577e+00 -1.43368e+00  -6.53069e-01   3.90293e-01
Si    9.65558e+00   4.23653e+00   1.36097e+00 -3.51520e-01  -1.95731e+00   4.87364e-01
Si    6.72719e+00   4.10042e+00   4.11950e+00  8.83470e-01  -1.06537e+00   7.27461e-02
Si    9.42989e+00   1.42909e+00   4.08161e+00  1.13725e-01   3.59638e-01  -2.13129e-01
Si    1.09650e+01   5.48104e+00   1.08419e+01  2.85847e-01   5.22189e-01   6.02699e-01
Si    2.80322e+00   8.06582e+00   1.08691e+01 -3.89006e-01   1.00577e+00  -1.41366e+00
Si   -1.31824e-01   8.08420e+00   2.67603e+00  2.27385e-01   1.23889e+00   9.62753e-02
Si    2.69126e+00   5.57120e+00   2.65834e+00  2.22412e-02  -4.01246e-01   4.21316e-01
Si    1.31058e+00   6.93042e+00   1.33823e+00  5.74646e-01  -1.27298e+00  -1.49491e-01
Si    4.24040e+00   9.39219e+00   1.25861e+00  2.51559e-01   9.01474e-01   1.07034e+00
Si    1.19855e+00   9.58045e+00   3.95158e+00 -1.11427e+00  -3.40638e-01   1.10954e+00
Si    4.00161e+00   6.92373e+00   4.07324e+00 -1.66614e+00  -1.06505e+00   7.82670e-01
Si    5.36104e+00   5.36836e+00   1.08488e+01  5.06409e-01   4.75134e-01  -3.21967e-02
Si    8.18091e+00   8.11809e+00  -8.06448e-02  4.68620e-01  -1.03861e+00  -9.18865e-01
Si    5.50123e+00   7.95691e+00   2.81877e+00  6.42108e-01   2.07420e+00  -2.11654e+00
Si    8.22071e+00   5.29674e+00   2.79290e+00 -1.91496e+00   1.25085e+00  -1.69370e+00
Si    6.83083e+00   6.73185e+00   1.28060e+00  3.04041e-01  -1.07320e+00   9.54535e-01
Si    9.43916e+00   9.46217e+00   1.31183e+00 -4.78228e-01   2.93464e-01   9.78714e-01
Si    6.85310e+00   9.36365e+00   4.11873e+00  8.75636e-01   8.17677e-01   3.02166e-02
Si    9.43772e+00   6.71750e+00   4.00388e+00  9.20808e-01   7.09767e-01   1.59827e+00
Si    1.06945e+01   1.09720e+01   5.43400e+00  1.15522e+00  -1.68060e+00   1.14356e+00
Si    2.65992e+00   2.68803e+00   5.42811e+00  1.22175e-01  -4.52888e-01  -8.57715e-01
Si   -8.27426e-02   2.84348e+00   8.22040e+00  1.18528e+00  -3.65271e-01   2.36650e-01
Si    2.66831e+00   1.46587e-01   8.15677e+00  3.03426e-01  -9.97548e-01   6.66273e-01
Si    1.27605e+00   1.41946e+00   6.86065e+00 -8.89355e-01   5.46624e-01  -7.92314e-01
Si    4.10555e+00   3.98125e+00   6.67263e+00 -2.36976e-01   7.54046e-01   1.22327e-01
Si    1.40964e+00   4.13308e+00   9.59075e+00  3.66926e-01  -8.05167e-01  -1.35602e+00
Si    4.06137e+00   1.48707e+00   9.53990e+00 -1.01301e-01  -1.16727e+00  -2.42378e-03
Si    5.50995e+00  -7.93246e-02   5.43566e+00 -4.32931e-01   4.60893e-02   3.13473e-01
Si    8.09438e+00   2.67524e+00   5.49672e+00 -8.20562e-01   5.21328e-01  -4.10774e-01
Si    5.39019e+00   2.73958e+00   8.15420e+00  9.35421e-01  -7.07102e-01  -7.24126e-01
Si    8.30205e+00   1.09739e-01   8.24755e+00 -6.84644e-01  -7.51700e-01   3.88451e-01
Si    6.84262e+00   1.26675e+00   6.86865e+00 -8.74055e-01   8.05856e-01  -6.25849e-02
Si    9.35650e+00   4.05595e+00   6.83861e+00  1.70918e+00   7.55021e-01  -1.57720e+00
Si    6.74402e+00   4.03505e+00   9.51467e+00  9.00997e-01   7.52410e-01  -6.22256e-02
Si    9.59943e+00   1.45354e+00   9.66058e+00 -5.02195e-01  -1.01061e-01  -3.72194e-01
Si    1.08800e+01   5.36198e+00   5.25858e+00 -9.17328e-01   2.14771e-01   2.48123e+00
Si    2.44260e+00   8.24235e+00   5.39504e+00  1.84545e+00  -3.54061e-01   2.82020e-01
Si    1.10326e+01   8.07624e+00   8.19584e+00 -6.52194e-01  -6.12522e-03  -6.47896e-01
Si    2.75835e+00   5.34206e+00   8.00454e+00  5.40561e-01  -3.48222e-01   1.66200e+00
Si    1.39086e+00   6.68085e+00   6.83198e+00 -1.16508e+00   4.05289e-01  -2.24937e+00
Si    3.93028e+00   9.58327e+00   6.74987e+00  1.88484e-02  -1.27193e-01  -2.75090e-01
Si    1.37114e+00   9.47858e+00   9.48446e+00  1.05094e+00   9.34592e-01   1.52896e+00
Si    4.09803e+00   6.75275e+00   9.37555e+00 -5.12374e-01  -4.80154e-01   6.42323e-01
Si    5.32872e+00   5.45041e+00   5.29413e+00 -5.78130e-02   4.44299e-01   1.27712e+00
Si    8.29819e+00   8.09081e+00   5.59170e+00 -1.46274e+00  -2.19193e-01  -1.17737e+00
Si    5.32955e+00   8.21653e+00   8.06319e+00  6.85019e-01   1.08415e-01   2.58709e-02
Si    8.05973e+00   5.46990e+00   8.06790e+00 -2.39746e-01  -3.91745e-03   1.30999e+00
Si    6.65421e+00   6.80657e+00   6.71841e+00  4.79034e-01  -8.71795e-03   5.78711e-02
Si    9.53178e+00   9.42395e+00   7.04115e+00  1.05169e+00   1.16284e+00  -1.79285e+00
Si    6.85635e+00   9.50208e+00   9.40676e+00 -9.79001e-02   9.36752e-02  -6.61404e-02
Si    9.71885e+00   6.67433e+00   9.38600e+00 -2.88984e+00   9.24245e-01   7.39192e-01
