64
Lattice="10.862 0 0 0 10.862 0 0 0 10.862 " PBC="1 1 1" Properties=species:S:1:pos:R:3:force:R:3 Energy="-266.91217"
Si    4.61638e-03   1.80902e-03  -4.49922e-02 -4.80189e-01  -5.86969e-01   1.06666e-01
Si    2.59177e+00   2.79484e+00  -3.41598e-02  1.36033e-01  -7.98962e-02  -2.42514e-01
Si    1.07665e+01   2.73965e+00   2.63330e+00  1.39835e+00  -7.17254e-01   7.21079e-01
Si    2.78639e+00   1.10438e-01   2.70325e+00 -1.21038e+00  -1.33213e-01  -8.00223e-02
Si    1.29650e+00   1.37711e+00   1.22218e+00  3.99575e-01   2.87374e-01   1.97875e+00
Si    3.96194e+00   4.15018e+00   1.29228e+00  2.43457e-01   2.81712e-01  -9.23130e-01
Si    1.29386e+00   3.94109e+00   4.15666e+00 -4.18785e-01   7.56536e-01   4.07521e-01
Si    4.16148e+00   1.51253e+00   4.01412e+00 -3.80606e-01  -4.36770e-02  -1.63851e-01
Si    5.28226e+00   1.09428e+01   5.70832e-02  1.17608e+00  -1.16699e+00  -5.66892e-01
Si    8.06321e+00   2.58257e+00   4.41177e-02  5.29337e-01   1.39611e+00   1.23286e+00
Si    5.39659e+00   3.00679e+00   2.62172e+00  1.24593e+00  -1.79697e+00   1.10308e+00
Si    8.18971e+00   1.08372e+01   2.74320e+00  5.80178e-01   2.45145e-01  -1.69946e+00
Si    6.66570e+00   1.31645e+00   1.42077e+00  4.53874e-01   7.83655e-01   5.88759e-01
Si    9.35309e+00   4.12346e+00   1.51108e+00  3.65783e-01  -2.42775e-01  -2.59670e+00
Si    6.95770e+00   4.16277e+00   4.06828e+00 -1.63200e+00   1.31952e+00  -2.88157e-01
Si    9.61136e+00   1.30583e+00   4.03724e+00 -8.83523e-03  -7.64366e-01   3.57786e-02
Si    1.07785e+01   5.38390e+00   1.08058e+01  2.73995e-01  -6.18454e-01   1.38959e+00
Si    2.55915e+00   8.18190e+00   1.10435e+01  1.93048e+00   6.44392e-01  -4.45033e-01
Si    6.56390e-02   8.07763e+00   2.63065e+00  2.98298e-01   1.41158e+00  -1.23790e-01
Si    2.59692e+00   5.33040e+00   2.72819e+00  2.63008e-01   1.12830e-01   5.12072e-01
Si    1.36182e+00   6.69988e+00   1.35974e+00 -1.40850e+00  -9.43909e-01  -2.80717e-01
Si    4.09078e+00   9.53714e+00   1.41399e+00 -1.37987e-01  -9.24336e-01   6.90602e-01
Si    1.37287e+00   9.47068e+00   4.00873e+00  1.61770e+00  -7.24587e-02  -2.97055e-01
Si    4.01253e+00   6.71130e+00   3.98440e+00  7.21205e-01   1.47165e+00   9.57555e-01
Si    5.49462e+00   5.36309e+00   1.07583e+01 -1.80356e+00   8.35936e-01   1.14941e+00
Si    8.08862e+00   8.01358e+00  -2.40273e-02 -2.02081e-01   1.12927e+00   3.82005e-01
Si    5.57545e+00   8.15305e+00   2.78036e+00 -2.19468e+00  -4.25498e-01  -9.87385e-01
Si    8.25141e+00   5.68820e+00   2.77436e+00 -9.87435e-01  -1.83718e+00   2.00922e-01
Si    6.71762e+00   6.67473e+00   1.37701e+00  8.10044e-01   1.25436e+00  -3.73211e-01
Si    9.53994e+00   9.43268e+00   1.27292e+00 -6.83535e-01   1.02234e-01   5.44553e-01
Si    6.90232e+00   9.52709e+00   4.03713e+00 -7.71581e-02  -5.15734e-01   1.12612e+00
Si    9.65840e+00   6.91354e+00   4.05716e+00 -8.68909e-01  -7.68914e-01   2.01761e+00
Si    1.09638e+01   1.07256e+01   5.41499e+00 -1.16504e+00   1.27069e+00  -4.82618e-02
Si    2.74434e+00   2.61225e+00   5.54714e+00 -3.07928e-01   8.69713e-01  -7.94170e-01
Si   -2.23533e-02   2.61777e+00   8.10357e+00 -7.78181e-01  -7.21739e-01   1.04737e+00
Si    2.78719e+00  -4.53763e-02   8.07889e+00 -7.58794e-01   1.27114e-01   1.15125e+00
Si    1.31072e+00   1.25812e+00   6.84582e+00  9.88361e-01  -2.76216e-01  -7.78244e-01
Si    4.13167e+00   4.13247e+00   6.73990e+00 -2.47016e-01  -4.02857e-01   1.34721e+00
Si    1.24393e+00   4.03498e+00   9.38881e+00  1.25320e+00   1.52759e+00   3.98020e-02
Si    3.90614e+00   1.34058e+00   9.59973e+00  1.18172e+00   8.80222e-01  -1.71886e+00
Si    5.54162e+00   1.00566e-01   5.25487e+00  2.28430e-02   2.24675e-03   8.34369e-01
Si    8.18694e+00   2.63207e+00   5.25935e+00  4.74742e-01   4.11360e-01   1.33595e-01
Si    5.44440e+00   2.62375e+00   8.11589e+00 -3.80318e-01   9.33668e-01   6.99275e-01
Si    8.16758e+00  -7.94751e-03   8.20126e+00 -5.66991e-01   2.09454e-01  -1.34572e+00
Si    6.88468e+00   1.45139e+00   6.64626e+00 -5.45386e-01  -1.91541e+00   1.51226e+00
Si    9.38778e+00   3.78775e+00   6.81068e+00  1.07581e-01   2.34113e+00  -8.67988e-02
Si    6.86683e+00   4.01253e+00   9.53999e+00 -1.95500e+00  -1.90396e+00  -2.60288e-01
Si    9.45428e+00   1.33525e+00   9.58265e+00  7.61171e-01  -1.62724e-03  -1.03307e+00
Si    1.07395e+01   5.39842e+00   5.60578e+00  6.00047e-01  -8.63684e-01  -1.60346e+00
Si    2.81032e+00   8.21271e+00   5.48072e+00 -5.99901e-01  -7.07436e-01  -1.49050e+00
Si    1.09588e+01   8.15444e+00   8.16757e+00 -1.22878e+00  -8.30586e-02   2.48486e-01
Si    2.82663e+00   5.58315e+00   8.18065e+00 -1.43508e+00  -1.44122e+00  -2.24860e-01
Si    1.35334e+00   6.80874e+00   6.74292e+00  9.78820e-01   1.32375e-01   9.21179e-01
Si    4.22039e+00   9.62938e+00   6.69799e+00  9.52007e-02  -5.82273e-01   3.24697e-01
Si    1.41540e+00   9.52469e+00   9.57442e+00 -2.18783e-01  -7.72382e-03  -1.25115e+00
Si    4.00580e+00   6.94496e+00   9.69387e+00  1.01132e+00  -6.69447e-01  -1.03012e+00
Si    5.45035e+00   5.56548e+00   5.47196e+00  5.88568e-01  -1.36484e+00  -1.36486e+00
Si    8.19736e+00   8.16513e+00   5.47441e+00 -1.36584e-01  -3.06888e-01  -8.50308e-01
Si    5.40800e+00   8.22968e+00   8.22426e+00 -9.88850e-02  -5.78438e-01  -7.88582e-01
Si    8.04335e+00   5.25238e+00   8.17157e+00  2.19941e+00   1.70421e+00  -1.10839e+00
Si    6.82127e+00   6.81585e+00   6.84117e+00 -2.79787e-01   3.93226e-01   7.61356e-01
Si    9.52501e+00   9.48523e+00   6.76289e+00  5.70502e-01   2.40338e-01   1.41257e+00
Si    6.73676e+00   9.53786e+00   9.54797e+00  2.43684e-01   4.27204e-01   8.46076e-01
Si    9.48593e+00   6.73492e+00   9.50623e+00 -3.23415e-01  -3.74405e-02  -1.57887e+00
