64
Lattice="10.862 0 0 0 10.862 0 0 0 10.862 " PBC="1 1 1" Properties=species:S:1:pos:R:3:force:R:3 Energy="-267.97926"
Si    4.24666e-02   1.06626e-01  -3.03898e-02 -2.52055e-03  -1.54679e+00  -3.74832e-01
Si    2.76217e+00   2.74413e+00   3.20570e-02 -8.25733e-01  -4.88171e-01   1.57199e+00
Si    1.08742e+01   2.66138e+00   2.63077e+00 -1.33096e-01   1.26429e+00   2.36175e+00
Si    2.77167e+00  -1.07465e-01   2.63288e+00 -1.24152e-01   1.44201e+00   1.98972e-01
Si    1.32103e+00   1.31147e+00   1.39525e+00  2.02455e+00   3.81413e-01  -8.52427e-01
Si    4.17732e+00   4.09766e+00   1.27477e+00  2.18880e-01  -3.80812e-01   2.56262e-01
Si    1.41161e+00   4.15008e+00   4.08329e+00 -1.18139e+00  -7.40358e-01  -9.45558e-01
Si    3.93209e+00   1.42350e+00   4.01124e+00  8.05922e-01  -4.47424e-01   3.70783e-01
Si    5.51928e+00   1.07430e+01  -1.54985e-01 -6.87552e-01   8.35933e-01   1.45969e+00
Si    8.08015e+00   2.52845e+00   1.10002e-01  5.25291e-01   2.11012e+00  -7.88164e-02
Si    5.44143e+00   2.64085e+00   2.66982e+00 -8.03996e-02   3.26960e-02   2.47837e-02
Si    8.27870e+00   1.08184e+01   2.80751e+00 -2.29174e-01  -2.00626e-01  -4.35458e-01
Si    6.80165e+00   1.14617e+00   1.44522e+00 -4.53406e-01   2.86248e-01  -4.58970e-01
Si    9.51934e+00   4.12711e+00   1.35455e+00 -1.83603e+00  -1.10314e+00   4.58795e-01
Si    6.84219e+00   3.90098e+00   4.07793e+00  2.05831e-01   7.26974e-01  -6.48126e-01
Si    9.63870e+00   1.28298e+00   4.20883e+00 -1.07814e-01   3.08191e-01  -1.06552e+00
Si    1.08591e+01   5.36624e+00   1.08602e+01  2.43088e-02   1.62534e+00  -1.09747e+00
Si    2.68429e+00   8.23503e+00   1.09593e+01  4.00375e-01  -1.85500e+00   2.44163e-01
Si    8.87385e-03   8.20987e+00   2.69010e+00 -2.84258e-01  -3.23342e-01   4.62084e-01
Si    2.84276e+00   5.39038e+00   2.60727e+00 -1.17463e+00  -3.45239e-01   7.30774e-01
Si    1.32881e+00   6.71351e+00   1.41773e+00  3.81937e-01   8.70360e-01  -7.98137e-01
Si    4.19337e+00   9.44045e+00   1.36558e+00 -3.69092e-01   9.85250e-01  -9.03659e-01
Si    1.50449e+00   9.50347e+00   4.05485e+00 -1.15889e+00  -1.23950e+00   1.41585e-01
Si    4.20980e+00   6.57488e+00   3.98718e+00 -7.52556e-01   2.18574e+00  -1.17873e-01
Si    5.44857e+00   5.59583e+00   1.08660e+01 -2.02465e-01  -3.42180e-01  -2.95792e-01
Si    8.23463e+00   8.14504e+00  -4.61058e-03 -6.09189e-01  -2.06691e-02  -1.19710e+00
Si    5.43931e+00   8.24181e+00   2.82568e+00  2.26631e-01  -1.66518e+00  -5.60248e-01
Si    8.00308e+00   5.53449e+00   2.69394e+00  1.74272e+00  -1.68096e+00   9.84358e-01
Si    6.77705e+00   6.90905e+00   1.41030e+00 -3.48865e-01   7.15523e-01  -7.93118e-01
Si    9.54787e+00   9.56231e+00   1.20851e+00  4.34867e-01  -1.51919e-02   1.87717e+00
Si    6.72152e+00   9.61551e+00   4.09100e+00  5.39105e-01   6.26360e-01   9.96541e-01
Si    9.38397e+00   6.88584e+00   4.11190e+00  4.92683e-01  -1.67933e-01  -6.56839e-01
Si    1.09107e+01   1.06894e+01   5.51234e+00  6.02895e-03   5.41567e-01  -6.40800e-01
Si    2.65030e+00   2.75497e+00   5.47858e+00  3.00981e-01   4.25339e-02   4.69732e-01
Si    3.15657e-03   2.67012e+00   8.29925e+00 -3.54698e-01  -3.83978e-02  -1.12164e+00
Si    2.78695e+00   2.78415e-02   8.08379e+00 -7.47767e-01  -1.81994e-01   1.51593e+00
Si    1.27082e+00   1.29271e+00   6.80081e+00  8.07013e-01   8.84072e-01   6.00242e-01
Si    4.09774e+00   4.16987e+00   6.84912e+00 -1.32516e+00  -6.08355e-01  -1.40215e-01
Si    1.40671e+00   4.00224e+00   9.59323e+00 -7.13327e-01   7.51672e-01  -5.01847e-01
Si    4.07390e+00   1.47690e+00   9.60490e+00  1.02543e+00  -1.92874e+00  -1.98973e+00
Si    5.34595e+00   1.49677e-01   5.46724e+00 -1.92938e-01  -4.30960e-01  -6.74196e-01
Si    8.23220e+00   2.63178e+00   5.50871e+00 -3.70229e-01   4.82033e-01  -2.50199e-01
Si    5.44091e+00   2.81844e+00   8.19448e+00 -1.13148e+00   2.82036e-01   8.32689e-01
Si    8.10584e+00   6.69108e-02   8.13452e+00 -2.31431e-01   7.97531e-01  -7.10523e-01
Si    6.68493e+00   1.52324e+00   6.84193e+00  1.10164e+00  -1.77129e+00  -2.64672e-01
Si    9.49035e+00   4.03840e+00   6.87518e+00 -5.97028e-01   1.75893e-02   1.15392e+00
Si    6.75371e+00   4.06021e+00   9.62734e+00  9.87621e-01   6.67101e-01  -5.72093e-02
Si    9.43883e+00   1.30474e+00   9.55933e+00  2.95677e-01   6.26820e-01  -3.60497e-01
Si    1.06800e+01   5.35983e+00   5.43522e+00  4.80826e-01   2.94077e-01  -1.39454e+00
Si    2.80455e+00   7.98420e+00   5.30791e+00 -1.01998e+00  -4.85751e-01   3.58027e-01
Si    1.08591e+01   8.25798e+00   8.10390e+00  7.75440e-01  -2.50075e-02  -1.22459e+00
Si    2.58431e+00   5.48005e+00   8.21400e+00  9.07006e-01   3.57521e-01  -6.91817e-01
Si    1.17676e+00   6.69969e+00   6.65991e+00  1.68376e+00   1.48448e+00   1.19204e+00
Si    4.00124e+00   9.46150e+00   6.67336e+00  8.83777e-01   3.54022e-01   2.56794e-01
Si    1.40354e+00   9.47679e+00   9.58171e+00 -3.39165e-01   1.85238e+00  -1.62209e+00
Si    4.04278e+00   6.95365e+00   9.49026e+00 -4.25711e-01  -9.64943e-01   4.85981e-02
Si    5.44809e+00   5.28356e+00   5.32325e+00  8.77258e-01  -1.38144e-01   1.09968e+00
Si    8.05569e+00   8.27920e+00   5.46128e+00 -5.89021e-01  -1.21976e+00  -7.22942e-01
Si    5.42447e+00   8.13837e+00   8.00287e+00  2.56151e-01   3.49279e-01   3.26597e-01
Si    8.07832e+00   5.53213e+00   8.20993e+00  1.97759e-01  -1.51740e+00  -8.34752e-01
Si    6.75323e+00   6.72055e+00   6.65901e+00 -5.85722e-02   4.11498e-01   4.74692e-01
Si    9.35438e+00   9.53670e+00   6.80050e+00  1.46135e+00   1.66739e-01   5.45157e-01
Si    6.90446e+00   9.47558e+00   9.36210e+00 -9.05696e-01  -1.24746e+00   5.14607e-01
Si    9.58167e+00   6.90280e+00   9.31885e+00 -5.07405e-01  -1.63868e+00   2.95380e+00
