64
Lattice="10.862 0 0 0 10.862 0 0 0 10.862 " PBC="1 1 1" Properties=species:S:1:pos:R:3:force:R:3 Energy="-266.85576"
Si    1.55559e-02   7.08700e-02  -2.07864e-01  5.61429e-01  -1.64952e+00   2.00771e+00
Si    2.58956e+00   2.71365e+00  -8.88079e-02  1.97146e+00   6.84297e-01   7.86157e-01
Si    1.07014e+01   2.83385e+00   2.64083e+00  1.93911e+00  -1.80953e+00   7.20375e-01
Si    2.67066e+00   1.31165e-01   2.78689e+00  1.85529e+00   1.29433e+00  -1.35800e+00
Si    1.30597e+00   1.42751e+00   1.28175e+00 -1.03875e+00  -3.64566e-01   8.84355e-01
Si    4.17217e+00   4.08307e+00   1.23103e+00 -1.65573e+00  -1.38768e+00   1.09832e+00
Si    1.43048e+00   4.05630e+00   3.98361e+00 -1.13400e+00  -4.94020e-01   8.29463e-01
Si    4.19909e+00   1.60869e+00   4.09736e+00 -2.22489e+00  -2.94620e+00   8.24164e-01
Si    5.18486e+00   1.08051e+01  -9.51386e-02  1.97457e+00  -3.73505e-02  -2.23831e-01
Si    8.09308e+00   2.62133e+00  -8.62169e-02 -5.69792e-01  -9.38561e-01  -2.60460e-01
Si    5.46445e+00   2.74228e+00   2.75897e+00  1.53540e+00   1.22887e+00  -2.15370e+00
Si    8.21482e+00   1.08947e+01   2.67710e+00 -6.35290e-01  -1.28179e+00  -1.30506e-01
Si    6.64376e+00   1.18152e+00   1.34509e+00  6.66124e-01   1.53292e+00  -6.24256e-01
Si    9.39829e+00   4.00779e+00   1.24016e+00 -1.49430e+00   7.41977e-01   9.50819e-01
Si    6.83945e+00   4.10899e+00   4.12032e+00  8.13015e-01  -1.02830e+00  -1.16098e+00
Si    9.52359e+00   1.31582e+00   4.06952e+00  7.98928e-01   5.03153e-01   4.58436e-01
Si    1.08124e+01   5.29816e+00   1.09439e+01  1.42454e-01   1.27908e+00  -1.25129e+00
Si    2.50559e+00   8.13782e+00   1.09946e+01  3.18006e-01   1.37156e-01  -7.03520e-01
Si    1.92670e-01   8.03565e+00   2.81415e+00 -6.14250e-01   1.15215e+00  -7.61333e-01
Si    2.81587e+00   5.34928e+00   2.72042e+00  3.09783e-01  -2.21659e-01  -5.52492e-01
Si    1.32880e+00   6.55293e+00   1.46423e+00  2.64178e-01   1.08599e+00  -5.33483e-01
Si    3.96372e+00   9.53104e+00   1.34343e+00 -1.01648e+00   1.99080e-02   1.36893e+00
Si    1.61814e+00   9.47653e+00   4.04646e+00 -1.70003e+00  -1.32028e+00   2.23833e+00
Si    4.03472e+00   6.68010e+00   4.17033e+00  1.40922e+00   3.69021e-01  -2.92614e-01
Si    5.33685e+00   5.53525e+00   1.08373e+01  1.63164e+00   6.29617e-01   3.48677e-01
Si    8.26800e+00   8.09710e+00   1.29176e-01 -1.74754e+00   7.58742e-01  -1.59763e-01
Si    5.26601e+00   8.29940e+00   2.91190e+00  2.32993e-01  -1.23785e+00  -1.23978e+00
Si    8.10004e+00   5.47914e+00   2.68132e+00  6.01189e-01  -4.08176e-01   1.35378e-01
Si    6.67069e+00   6.91213e+00   1.51515e+00 -1.52520e-01  -1.50320e-01  -1.02368e+00
Si    9.66996e+00   9.46849e+00   1.39329e+00  3.88847e-01   6.39450e-01  -1.00430e-01
Si    6.78373e+00   9.57147e+00   4.08406e+00  8.28860e-02   1.15146e+00  -3.27127e-01
Si    9.55671e+00   6.79675e+00   4.04979e+00 -6.49259e-01  -3.33953e-01   1.23347e-01
Si    1.09204e+01   1.07248e+01   5.46198e+00  6.59159e-01   9.71237e-01  -1.76826e+00
Si    2.81428e+00   2.83452e+00   5.47780e+00 -5.00028e-01   1.58986e-01  -3.02656e-01
Si    1.76144e-01   2.68168e+00   8.09478e+00 -1.15244e+00  -7.20343e-01  -3.48063e-01
Si    2.76699e+00  -8.29039e-02   8.09329e+00  5.45720e-01   3.20116e-01  -7.29416e-01
Si    1.51049e+00   1.25827e+00   6.68817e+00 -6.02253e-01   8.41608e-01   4.22490e-01
Si    4.07569e+00   4.33531e+00   6.79169e+00  4.31262e-02  -1.92169e+00   1.68711e-01
Si    1.31336e+00   4.09206e+00   9.51824e+00  2.73674e-01   2.85042e-01  -5.76556e-01
Si    3.95245e+00   1.39939e+00   9.40879e+00  4.51937e-01   1.92125e-01  -1.88385e-02
Si    5.39982e+00   5.50115e-02   5.43931e+00  9.76336e-01   5.39702e-01   3.43531e-01
Si    8.23975e+00   2.75355e+00   5.43955e+00 -5.48120e-01  -4.44395e-01   4.28582e-01
Si    5.34889e+00   2.83784e+00   8.09922e+00  3.01830e-01  -2.29335e-01   4.20707e-01
Si    8.04273e+00   3.65691e-02   8.03608e+00  8.45525e-01  -2.38589e+00   1.20756e+00
Si    6.81353e+00   1.44274e+00   6.84198e+00 -1.42144e+00   7.58223e-01  -1.74133e+00
Si    9.53164e+00   4.06403e+00   6.90407e+00  4.35762e-01  -1.85600e-01  -8.51194e-01
Si    6.74304e+00   4.13838e+00   9.50941e+00 -9.04936e-02  -2.28395e-01   1.04815e-01
Si    9.53549e+00   1.25637e+00   9.31781e+00 -8.52349e-01   2.09778e+00   1.58057e-01
Si    1.08266e+01   5.33793e+00   5.38160e+00  7.30139e-01   5.31985e-01   7.23859e-01
Si    2.85014e+00   8.01224e+00   5.59584e+00 -1.89569e+00   4.71185e-01  -6.17165e-01
Si    1.08191e+01   8.15366e+00   8.11258e+00 -5.11806e-01   2.41717e-01   2.50584e-01
Si    2.68373e+00   5.49985e+00   8.20117e+00 -4.42611e-01  -2.96164e-01   8.31342e-01
Si    1.26820e+00   6.71615e+00   6.90512e+00  3.11940e-01   2.68817e-01  -1.94530e+00
Si    4.18871e+00   9.41952e+00   6.81330e+00 -1.04292e-01   5.06895e-01   2.96591e-01
Si    1.38255e+00   9.51812e+00   9.36009e+00 -7.50348e-01  -7.26510e-01   1.44436e+00
Si    3.91021e+00   6.87083e+00   9.60154e+00  1.97836e-01  -2.09563e-01  -1.32115e-01
Si    5.56601e+00   5.38673e+00   5.42479e+00 -8.81086e-01   1.73128e+00   5.17910e-01
Si    8.20042e+00   8.27265e+00   5.30957e+00 -1.16892e+00  -2.70727e+00   8.31396e-01
Si    5.40109e+00   7.99848e+00   8.20704e+00  4.92518e-01   5.98143e-01  -1.42271e-01
Si    8.18699e+00   5.46159e+00   8.21372e+00  1.26440e-01  -2.23556e-01   3.33193e-01
Si    6.85301e+00   6.73998e+00   6.83324e+00  4.61588e-01   1.29588e+00  -1.18767e+00
Si    9.44835e+00   9.48149e+00   6.69008e+00  4.78757e-01   6.85845e-01   1.76510e+00
Si    6.76003e+00   9.38142e+00   9.52317e+00  3.57963e-01   1.04577e+00   2.80580e-01
Si    9.54622e+00   6.81684e+00   9.57945e+00  3.67934e-01  -8.61987e-01  -8.57350e-02
