64
Lattice="10.862 0 0 0 10.862 0 0 0 10.862 " PBC="1 1 1" Properties=species:S:1:pos:R:3:force:R:3 Energy="-267.89649"
Si   -4.52497e-02  -1.51965e-03   1.57663e-02 -1.67058e-01  -1.85588e+00  -1.74965e-01
Si    2.51291e+00   2.78479e+00  -4.83052e-02  2.40880e+00   1.31309e+00  -1.38130e+00
Si    1.10104e+01   2.61245e+00   2.68860e+00 -1.58302e+00   1.35070e-01  -1.91233e-01
Si    2.76472e+00  -1.00477e-02   2.53939e+00  8.09977e-03   2.98798e-01   1.26371e+00
Si    1.37133e+00   1.38304e+00   1.13781e+00 -4.57677e-01  -1.55808e+00   2.66749e+00
Si    3.90779e+00   4.13756e+00   1.40579e+00 -5.68280e-02  -1.10897e+00  -3.79540e-01
Si    1.44478e+00   4.01735e+00   4.00865e+00 -9.97482e-01  -9.56264e-02   1.49094e+00
Si    4.27082e+00   1.32105e+00   3.99958e+00 -2.36117e+00   1.52168e-01  -1.01684e+00
Si    5.47407e+00   1.10285e+01   7.81972e-02 -1.47827e-01  -8.73337e-01  -1.04705e+00
Si    8.08520e+00   2.80476e+00   1.27685e-01  2.09396e+00  -5.48815e-01  -1.52553e+00
Si    5.40288e+00   2.80457e+00   2.66383e+00  1.07141e+00   3.29029e-01   2.03827e-01
Si    8.12417e+00   1.08323e+01   2.66837e+00  5.51771e-02  -3.33682e-01  -2.52952e-01
Si    6.87767e+00   1.43288e+00   1.36810e+00 -1.48169e+00  -2.69378e-02   1.37324e+00
Si    9.62678e+00   4.07862e+00   1.37511e+00 -5.01639e-01  -1.03092e+00   8.21670e-01
Si    6.77296e+00   4.18326e+00   4.11699e+00  4.98052e-01  -1.18631e+00  -1.47416e+00
Si    9.45092e+00   1.24245e+00   4.00154e+00  1.74815e+00   1.18276e+00   1.45131e-01
Si    1.08070e+01   5.42458e+00   1.08598e+01 -2.64595e-01   2.72620e-01  -1.27142e+00
Si    2.72008e+00   8.17943e+00   1.09855e+01  9.15948e-01   4.77336e-01  -9.85047e-01
Si   -1.85709e-01   8.04576e+00   2.65433e+00  1.12497e+00   1.82495e-01   1.48511e+00
Si    2.68828e+00   5.45118e+00   2.85638e+00 -7.27317e-01   1.79151e+00  -2.69020e+00
Si    1.22689e+00   6.86758e+00   1.22143e+00  1.15957e+00  -1.62864e+00   2.68451e+00
Si    4.27020e+00   9.49867e+00   1.36833e+00 -7.65264e-01  -1.08624e-01   1.33980e-01
Si    1.32864e+00   9.45390e+00   3.97937e+00  6.09922e-02   3.57189e-01  -5.64845e-01
Si    4.07467e+00   6.80801e+00   4.10146e+00  1.46359e+00   1.23138e-01   7.19503e-01
Si    5.33293e+00   5.34711e+00   1.09317e+01  3.96641e-01   1.09489e+00  -6.92097e-01
Si    8.05528e+00   8.09877e+00  -7.40653e-02 -2.92318e-01  -2.11283e-02   8.49932e-01
Si    5.60899e+00   8.16006e+00   2.79139e+00 -1.36335e+00  -1.03223e+00  -5.32294e-01
Si    8.26133e+00   5.39973e+00   2.71610e+00 -1.00836e+00  -1.60299e-01   4.22374e-01
Si    6.80677e+00   6.66438e+00   1.37476e+00  3.92412e-02   7.45846e-01  -9.21818e-02
Si    9.40943e+00   9.39815e+00   1.34654e+00  6.23630e-03   1.03468e+00  -8.93579e-01
Si    6.84564e+00   9.55696e+00   4.10071e+00  2.89643e-01  -5.16559e-02   2.13329e-01
Si    9.42989e+00   6.70519e+00   4.21899e+00  8.57488e-01   8.86930e-01  -7.38818e-01
Si    1.09050e+01   1.08594e+01   5.42146e+00 -7.84048e-01  -1.29076e+00  -7.44705e-01
Si    2.78102e+00   2.62683e+00   5.29621e+00  3.93069e-01  -1.23819e-01   1.48737e+00
Si   -6.59887e-02   2.54666e+00   8.08099e+00 -5.47491e-01  -1.70968e-01   1.00965e+00
Si    2.62613e+00   3.40112e-02   8.29811e+00  6.94095e-01   2.13461e-01  -1.16921e+00
Si    1.37767e+00   1.27329e+00   6.74898e+00  5.85500e-01   9.67299e-01   6.92789e-02
Si    4.10848e+00   3.95657e+00   6.85056e+00 -4.44382e-02   2.75045e-01  -1.44358e+00
Si    1.14055e+00   4.07152e+00   9.39448e+00  1.54526e+00   1.24259e-01  -2.71894e-02
Si    4.04820e+00   1.41318e+00   9.51863e+00  5.04947e-02   6.03592e-01   3.70539e-01
Si    5.53631e+00   8.88451e-02   5.38852e+00 -8.77853e-01  -1.41547e+00   6.33600e-01
Si    8.16708e+00   2.71840e+00   5.29042e+00  8.56108e-01   7.10418e-01   1.75114e-01
Si    5.54600e+00   2.62829e+00   8.07222e+00 -5.98757e-01  -1.59217e-01   8.74380e-01
Si    8.17995e+00  -2.48895e-02   8.02390e+00 -8.71404e-01  -3.17271e-01   6.78275e-01
Si    6.90301e+00   1.39291e+00   6.60412e+00 -1.89188e-02  -2.89045e-01   1.75900e+00
Si    9.55451e+00   3.99339e+00   6.77540e+00 -6.16728e-01   1.15278e+00  -9.53050e-01
Si    6.73085e+00   3.99996e+00   9.57746e+00 -2.14533e-02   1.05012e+00  -1.07518e+00
Si    9.36308e+00   1.21010e+00   9.59854e+00  3.52149e-01   2.20944e+00  -8.17483e-01
Si    1.10156e+01   5.47637e+00   5.44101e+00 -4.97519e-01  -9.40768e-01   8.03554e-01
Si    2.76613e+00   8.23149e+00   5.41691e+00 -6.18458e-01   7.17627e-02   4.86262e-01
Si    1.07929e+01   8.11703e+00   8.17302e+00  5.80696e-01  -2.49842e-01   1.65904e+00
Si    2.81776e+00   5.37557e+00   8.17508e+00 -1.31054e+00   9.52954e-01   5.51880e-01
Si    1.41759e+00   6.92589e+00   6.90797e+00  8.23102e-01  -1.55210e+00  -1.17299e+00
Si    3.99254e+00   9.69888e+00   6.81893e+00  1.39882e+00  -6.82352e-01  -3.61645e-02
Si    1.38783e+00   9.45239e+00   9.55823e+00 -1.50141e+00   7.27038e-02   3.48962e-01
Si    4.09555e+00   6.90531e+00   9.56935e+00 -4.35390e-01  -1.50601e+00   3.25217e-01
Si    5.48456e+00   5.40797e+00   5.53204e+00 -1.02153e+00   1.59056e+00   6.53035e-01
Si    8.15229e+00   8.22799e+00   5.48635e+00 -3.09156e-01  -1.07743e+00   1.19174e-01
Si    5.39368e+00   8.30909e+00   8.27263e+00 -9.06052e-01  -3.44769e-02  -1.47249e+00
Si    8.02526e+00   5.42241e+00   8.06445e+00  1.09516e+00  -1.53615e+00   1.36903e+00
Si    6.77815e+00   6.94929e+00   6.95196e+00 -9.15058e-01  -2.27089e-01  -1.79548e+00
Si    9.57917e+00   9.42643e+00   6.80476e+00 -1.35778e-01   1.56403e+00  -7.12414e-01
Si    6.74317e+00   9.58805e+00   9.53112e+00  9.16103e-01   1.00178e+00   1.41184e-01
Si    9.37048e+00   6.70484e+00   9.50481e+00  7.19049e-01   2.56155e-01  -6.65298e-01
