64
Lattice="10.862 0 0 0 10.862 0 0 0 10.862 " PBC="1 1 1" Properties=species:S:1:pos:R:3:force:R:3 Energy="-267.50432"
Si    6.38841e-02  -7.74279e-02   1.54065e-02  7.78730e-01   8.64444e-02  -8.03488e-02
Si    2.54802e+00   2.85300e+00  -1.51258e-01  1.56260e+00  -4.64858e-01   1.95554e+00
Si    1.08499e+01   2.65935e+00   2.83117e+00 -1.18775e-01   3.55243e-01   3.91950e-01
Si    2.73101e+00   1.65901e-01   2.63690e+00  1.04348e+00   6.57639e-01   6.03601e-01
Si    1.35816e+00   1.49449e+00   1.35723e+00 -7.65664e-01  -8.52925e-01  -9.23392e-01
Si    4.07746e+00   4.05782e+00   1.37876e+00 -9.57551e-01  -3.52663e-01  -1.41683e+00
Si    1.31331e+00   4.12039e+00   4.15658e+00  9.22482e-01  -7.23895e-01  -5.14786e-01
Si    4.09563e+00   1.49039e+00   4.12105e+00 -2.49794e-01  -1.57145e+00  -3.66889e-01
Si    5.24135e+00   1.10475e+01   2.37744e-01  4.64359e-01  -1.10953e+00  -5.67260e-01
Si    8.14684e+00   2.78455e+00   7.12665e-02  2.50995e-02  -9.37148e-01  -1.74536e-01
Si    5.37043e+00   2.87301e+00   2.84375e+00  1.65321e+00   2.05779e-01   1.91134e-01
Si    8.25298e+00   1.07525e+01   2.64186e+00 -1.17247e+00   8.66040e-01   9.67284e-01
Si    6.75595e+00   1.46905e+00   1.56435e+00  5.08018e-01  -3.29331e-01  -8.95918e-01
Si    9.61853e+00   4.08004e+00   1.44732e+00 -5.17470e-01  -1.10788e-01  -1.30698e+00
Si    6.88182e+00   4.25798e+00   4.13623e+00 -1.08604e+00  -1.40365e+00  -4.40906e-01
Si    9.41419e+00   1.28547e+00   4.19189e+00  8.77306e-01   9.93617e-02  -7.52584e-01
Si    1.07222e+01   5.40441e+00   1.06109e+01 -1.75971e-01   1.03207e-01   2.07931e+00
Si    2.75848e+00   8.03929e+00   1.08040e+01 -5.81288e-01   1.02351e+00   6.26134e-01
Si    1.32808e-01   8.14804e+00   2.67807e+00 -1.07322e+00  -1.46867e+00   7.88064e-02
Si    2.74502e+00   5.36485e+00   2.64352e+00 -1.70435e+00   1.17300e+00   5.95610e-01
Si    1.25045e+00   6.72741e+00   1.14859e+00  1.08418e+00  -6.83412e-01   1.06563e+00
Si    3.92591e+00   9.42113e+00   1.49228e+00  7.24926e-01   5.86591e-01  -1.64317e+00
Si    1.57335e+00   9.51838e+00   3.84444e+00 -1.99980e+00   5.48922e-01   1.64939e+00
Si    4.16294e+00   6.69476e+00   4.03275e+00 -1.28237e+00   1.25873e-01   7.45846e-01
Si    5.38848e+00   5.47469e+00   1.09648e+01  6.72457e-01  -4.41018e-01  -8.06151e-01
Si    8.07825e+00   8.09463e+00  -2.40755e-02  1.96919e-01   1.34528e+00  -4.00686e-01
Si    5.38315e+00   8.04639e+00   2.65006e+00  9.60873e-01   5.09307e-01   6.95968e-01
Si    8.29235e+00   5.43536e+00   2.75494e+00 -1.00264e+00   5.70221e-01  -6.11235e-01
Si    6.83867e+00   6.77557e+00   1.38704e+00  6.23781e-02  -7.80542e-01   1.85808e-01
Si    9.57672e+00   9.39696e+00   1.32968e+00 -1.66035e-01  -7.38854e-02  -6.44800e-01
Si    6.86673e+00   9.34386e+00   3.96653e+00 -2.07070e-01   7.93848e-01  -9.87897e-02
Si    9.55783e+00   6.71772e+00   4.13803e+00  4.48623e-01   2.43687e+00  -7.32964e-01
Si    1.09425e+01   1.07533e+01   5.39721e+00  1.11764e+00   9.38415e-01  -1.84925e+00
Si    2.71359e+00   2.69029e+00   5.50731e+00 -4.19016e-01   1.07124e+00   6.54239e-01
Si    2.21143e-02   2.63785e+00   8.14420e+00 -1.26865e+00  -4.86028e-01  -5.71038e-01
Si    2.75923e+00  -2.33448e-03   8.21442e+00 -8.50717e-01  -4.06784e-01  -1.03202e+00
Si    1.34162e+00   1.23462e+00   6.81682e+00  6.92616e-01   6.78170e-01  -1.46365e-01
Si    4.09506e+00   4.13192e+00   6.90725e+00 -8.36304e-02  -2.05708e+00  -5.21903e-01
Si    1.22651e+00   4.09791e+00   9.39252e+00  2.29723e-01  -2.31548e-02  -3.17297e-01
Si    3.93648e+00   1.39867e+00   9.52346e+00  6.50340e-01   8.17063e-02   1.05906e+00
Si    5.50281e+00  -7.11529e-02   5.26249e+00  4.74776e-02   7.99232e-01   1.60824e+00
Si    8.08237e+00   2.80761e+00   5.45432e+00  8.01329e-01  -9.87842e-01  -7.44856e-01
Si    5.41062e+00   2.53921e+00   8.17889e+00 -2.25143e-02   1.47119e+00  -5.44469e-01
Si    8.18860e+00  -1.58196e-02   8.06037e+00  4.08488e-01  -4.52082e-01   1.18616e+00
Si    6.90633e+00   1.36196e+00   6.76441e+00 -2.10479e+00  -8.38242e-01  -6.23207e-01
Si    9.48824e+00   4.00160e+00   6.75516e+00  2.09087e-01   1.08416e+00   1.28511e+00
Si    6.63380e+00   4.03569e+00   9.52709e+00  1.03843e+00   2.74305e-01   2.19742e-01
Si    9.54118e+00   1.24603e+00   9.55011e+00 -7.29217e-01   1.25957e+00  -5.92304e-02
Si    1.08372e+01   5.46978e+00   5.48823e+00  8.26559e-01  -7.06718e-01   8.29298e-01
Si    2.75389e+00   8.23360e+00   5.31473e+00  1.04827e+00  -1.54540e+00   9.38835e-01
Si    1.08602e+01   8.05018e+00   8.10372e+00 -1.53598e-01   9.19292e-01   3.00118e-01
Si    2.66900e+00   5.38629e+00   8.19051e+00  1.06432e+00   1.76123e+00   8.97712e-02
Si    1.43438e+00   6.81936e+00   6.79467e+00 -6.56137e-02  -2.42784e-01  -9.42450e-01
Si    4.06222e+00   9.55640e+00   6.81491e+00  6.65261e-01   2.01917e-01  -1.22255e+00
Si    1.45053e+00   9.40528e+00   9.43346e+00 -1.09301e+00   1.49679e-01   8.19193e-01
Si    4.18009e+00   6.84104e+00   9.50635e+00 -9.81879e-01  -1.35764e+00  -4.55480e-01
Si    5.46389e+00   5.40568e+00   5.53892e+00 -6.91729e-01   8.05109e-01  -9.45739e-01
Si    8.23041e+00   8.18476e+00   5.47978e+00 -3.18981e-01  -9.15342e-01  -8.89521e-01
Si    5.42817e+00   8.30187e+00   8.22147e+00  1.50020e-01  -4.23565e-01  -6.62947e-01
Si    7.98822e+00   5.40955e+00   8.06820e+00 -3.28979e-01  -7.20894e-01  -4.61024e-01
Si    6.67171e+00   6.91196e+00   6.73182e+00  1.23624e+00   2.38282e-01   1.36624e+00
Si    9.65911e+00   9.53657e+00   6.70358e+00 -1.42066e+00  -1.27226e+00   1.78557e+00
Si    6.67799e+00   9.70473e+00   9.61038e+00  8.03530e-01  -3.00003e-01   3.31530e-01
Si    9.31612e+00   6.73720e+00   9.37002e+00  6.18535e-01   8.18949e-01   6.24421e-02
