64
Lattice="10.862 0 0 0 10.862 0 0 0 10.862 " PBC="1 1 1" Properties=species:S:1:pos:R:3:force:R:3 Energy="-268.57955"
Si   -5.13602e-02   7.09996e-02  -1.71526e-01  1.90640e-01  -1.68984e+00   1.40385e+00
Si    2.58413e+00   2.57454e+00   1.32449e-01  1.58141e+00   1.73160e+00  -9.02693e-01
Si    1.08112e+01   2.83574e+00   2.70476e+00  9.99740e-01  -1.08993e+00  -1.79084e-01
Si    2.67250e+00  -1.58895e-01   2.76913e+00  1.95823e+00   2.48329e+00  -1.40392e+00
Si    1.28176e+00   1.22741e+00   1.34849e+00 -8.65469e-01   2.08036e-01   1.78737e+00
Si    3.95381e+00   4.06252e+00   1.41369e+00 -3.81934e-01  -1.82630e-01  -3.43103e-01
Si    1.39850e+00   4.20948e+00   3.99981e+00  1.64972e-02  -2.22118e+00   7.82163e-01
Si    4.28963e+00   1.20065e+00   4.10261e+00 -3.19349e+00  -7.49485e-01   3.01907e-01
Si    5.43833e+00   1.08454e+01  -1.19900e-01 -3.15010e-01   3.40490e-01   8.89764e-01
Si    8.15453e+00   2.73813e+00   1.58525e-01  7.60721e-01   8.81065e-02  -1.10171e+00
Si    5.25424e+00   2.74782e+00   2.81459e+00  2.31501e+00   7.20030e-01  -8.81207e-01
Si    8.13802e+00   1.09253e+01   2.60939e+00 -1.63056e+00  -3.61199e-01   8.41228e-01
Si    6.62449e+00   1.39953e+00   1.37348e+00  5.55054e-01  -2.24061e-02   1.03694e-01
Si    9.63274e+00   4.26577e+00   1.34308e+00 -1.16656e+00  -5.81379e-01  -4.50031e-01
Si    6.70858e+00   4.21170e+00   4.08784e+00  7.36442e-01  -1.71273e+00  -6.40677e-01
Si    9.34173e+00   1.45482e+00   3.98273e+00  1.25220e+00   3.26691e-01   7.86604e-01
Si    1.10168e+01   5.58627e+00   1.08160e+01 -3.12047e-01  -5.96250e-01   6.61941e-01
Si    2.83550e+00   8.16938e+00   1.08746e+01 -6.78711e-01   1.42943e-01  -6.24413e-01
Si   -8.88005e-02   8.18909e+00   2.71770e+00  1.94976e-01   9.93290e-01  -4.97137e-01
Si    2.72869e+00   5.56046e+00   2.77017e+00  2.85643e-02   9.58716e-01  -1.05706e+00
Si    1.37910e+00   7.00260e+00   1.36680e+00  4.30265e-01  -1.29844e+00   3.65502e-01
Si    4.13599e+00   9.50363e+00   1.33684e+00  8.40979e-02   4.22698e-01   3.55624e-01
Si    1.29820e+00   9.58728e+00   4.04483e+00 -1.62988e+00  -1.71865e+00   2.19077e+00
Si    4.01153e+00   6.93432e+00   4.20044e+00  8.85764e-01  -5.11098e-01  -4.18997e-01
Si    5.32660e+00   5.22550e+00   1.07282e+01  9.00978e-01   7.78021e-01   1.39325e+00
Si    8.08746e+00   8.00227e+00  -5.77125e-03  6.69332e-01   3.55209e-02  -9.31431e-01
Si    5.47734e+00   8.22459e+00   2.76526e+00 -1.34545e-01  -7.53274e-01   2.98523e-01
Si    8.16004e+00   5.49364e+00   2.70484e+00 -7.09088e-01  -4.66101e-01  -3.42457e-01
Si    6.67156e+00   6.71472e+00   1.32431e+00 -1.88618e-01  -3.52802e-01   1.11318e-02
Si    9.37625e+00   9.52787e+00   1.26491e+00  1.34624e+00  -2.49905e-01  -4.74857e-01
Si    6.88362e+00   9.53711e+00   4.17921e+00  8.58060e-01  -8.07922e-01  -1.42930e+00
Si    9.57743e+00   6.70316e+00   4.02989e+00 -7.79390e-01   1.68295e+00   1.03753e+00
Si    1.06924e+01   1.09239e+01   5.42708e+00  8.72329e-01   1.73588e-01  -1.00361e+00
Si    2.71608e+00   2.58658e+00   5.31822e+00  2.65970e-01   7.47695e-01  -1.75722e-01
Si    8.85389e-02   2.88310e+00   8.14817e+00  4.45050e-01  -8.26066e-01  -4.81025e-01
Si    2.72251e+00   3.94435e-02   8.23191e+00 -3.08118e-01   7.71753e-01  -1.14990e+00
Si    1.32704e+00   1.32311e+00   6.72944e+00 -6.59935e-02   5.90648e-01   9.75563e-01
Si    4.09700e+00   3.92775e+00   6.74137e+00  2.19948e-01  -5.07715e-01  -1.25109e+00
Si    1.47449e+00   4.11810e+00   9.60124e+00  5.05576e-01  -8.67557e-03  -1.05154e+00
Si    4.05414e+00   1.45527e+00   9.51637e+00 -1.02960e-01  -1.10704e+00   2.03851e-01
Si    5.51532e+00  -1.56515e-01   5.53487e+00 -8.68773e-01   4.04386e-01  -5.83269e-01
Si    8.07408e+00   2.77410e+00   5.46743e+00  3.32618e-01   6.62006e-01  -8.52138e-01
Si    5.43370e+00   2.57825e+00   8.01772e+00  6.40631e-01  -1.01677e-01   4.56615e-01
Si    8.16137e+00   5.09416e-02   8.16494e+00  3.76549e-01  -8.66287e-01   4.41145e-01
Si    6.84330e+00   1.23348e+00   6.66761e+00 -8.03909e-02   1.03615e+00   1.63905e+00
Si    9.50604e+00   4.14715e+00   6.83037e+00  8.73033e-01  -1.00786e+00  -1.87275e+00
Si    6.78198e+00   3.85971e+00   9.46229e+00 -4.59081e-02   6.21687e-01  -9.83543e-03
Si    9.59361e+00   1.51583e+00   9.43973e+00 -1.78837e+00   9.76641e-02   3.31036e-01
Si    1.09389e+01   5.44916e+00   5.38713e+00 -1.01212e-01   1.60539e-01   1.54452e+00
Si    2.62542e+00   8.23432e+00   5.57273e+00 -1.09672e-01   3.69684e-01  -1.52973e+00
Si    1.10154e+01   8.06799e+00   8.15269e+00 -1.14107e+00   8.56777e-01   4.36714e-01
Si    2.97668e+00   5.32675e+00   8.08126e+00 -2.71198e+00   5.24595e-01   1.23713e+00
Si    1.48222e+00   6.74954e+00   6.86957e+00 -1.83159e-01  -1.24843e+00  -7.60470e-01
Si    3.98758e+00   9.54359e+00   6.85325e+00  8.34207e-01  -2.55396e-01   5.76088e-01
Si    1.44188e+00   9.51818e+00   9.50335e+00 -6.11415e-01  -4.99139e-01   5.36694e-01
Si    4.09858e+00   6.75035e+00   9.48986e+00 -7.18700e-02  -2.07777e-01   4.49899e-01
Si    5.37675e+00   5.39317e+00   5.46426e+00 -7.84293e-01   1.32792e+00   7.58979e-02
Si    8.27190e+00   8.14594e+00   5.52016e+00 -9.19414e-01  -1.23193e+00  -5.67871e-01
Si    5.32945e+00   8.13439e+00   8.18494e+00  6.73024e-01  -6.56117e-02  -9.96059e-01
Si    8.10674e+00   5.28019e+00   8.12098e+00 -9.11133e-01   1.51118e+00   8.23436e-01
Si    6.70270e+00   6.75246e+00   6.82319e+00  1.10030e+00   2.97652e-01   2.57911e-02
Si    9.57556e+00   9.50173e+00   6.86360e+00 -6.00273e-02  -1.37532e-01   6.07670e-01
Si    6.76499e+00   9.38197e+00   9.48222e+00  7.84504e-01   1.14228e+00  -2.09318e-01
Si    9.56042e+00   6.65631e+00   9.39316e+00 -8.36905e-01   1.22776e+00   6.00461e-01
