64
Lattice="10.862 0 0 0 10.862 0 0 0 10.862 " PBC="1 1 1" Properties=species:S:1:pos:R:3:force:R:3 Energy="-267.95604"
Si    6.23352e-03   6.79606e-02  -3.96886e-02 -4.89367e-01  -1.45917e-01   2.28427e-01
Si    2.81755e+00   2.60245e+00   4.81202e-02 -2.00505e+00   6.57203e-01   3.06611e-01
Si    1.09217e+01   2.64869e+00   2.64345e+00 -9.74330e-01   5.75597e-01   2.33955e-01
Si    2.84182e+00  -1.44049e-01   2.76990e+00 -1.95233e+00   1.18458e+00  -4.13788e-01
Si    1.38333e+00   1.27013e+00   1.44779e+00  1.39525e+00  -6.99835e-01  -1.15765e+00
Si    4.04094e+00   3.97540e+00   1.42628e+00  1.55983e+00   7.90873e-01  -2.02116e-01
Si    1.41612e+00   4.00437e+00   3.91955e+00 -8.05819e-01   4.61983e-01   9.63356e-01
Si    3.98353e+00   1.33929e+00   4.07066e+00  9.97641e-01  -1.19234e-01   2.21093e+00
Si    5.58848e+00   1.07595e+01  -2.61852e-02 -9.95111e-01   6.69200e-01   8.75917e-02
Si    8.08821e+00   2.76690e+00   9.20955e-02 -2.34010e-02   3.42301e-01  -6.38553e-01
Si    5.43549e+00   2.57899e+00   2.79948e+00 -3.09762e-01   4.40174e-01  -1.21664e+00
Si    8.20679e+00   1.08403e+01   2.79159e+00 -8.80617e-01  -3.98819e-01  -6.75063e-01
Si    6.86428e+00   1.29590e+00   1.44147e+00 -6.57168e-01  -1.49195e-01  -4.72196e-01
Si    9.53702e+00   4.06530e+00   1.34000e+00 -3.02357e-01   2.22265e-01   9.86374e-01
Si    6.75517e+00   3.96512e+00   4.05586e+00  1.13211e+00   5.36593e-01  -2.28903e-01
Si    9.47099e+00   1.38959e+00   3.98204e+00  1.05337e+00   4.49748e-01   1.66312e+00
Si    1.08940e+01   5.46485e+00   1.09582e+01  1.23769e+00  -1.00271e+00  -9.08638e-01
Si    2.70641e+00   8.18270e+00   1.07840e+01  3.75348e-02  -6.07288e-01   9.55011e-01
Si   -5.66159e-02   8.22105e+00   2.59382e+00  3.83003e-01  -3.17372e-01   1.75518e+00
Si    2.78408e+00   5.40632e+00   2.76549e+00 -2.11794e-01   1.01697e+00  -9.88750e-01
Si    1.37354e+00   6.84033e+00   1.40548e+00  9.37942e-01  -2.90702e-01  -3.01963e-01
Si    4.09546e+00   9.48482e+00   1.34121e+00  1.09624e-01   3.65765e-01  -1.54095e+00
Si    1.28191e+00   9.56350e+00   4.06924e+00  9.84951e-01  -2.09349e+00  -2.04838e-01
Si    4.16048e+00   6.81753e+00   4.07139e+00  9.59803e-02  -9.04025e-01  -4.53063e-01
Si    5.33362e+00   5.55400e+00   1.09074e+01 -8.92382e-01  -9.96176e-01   8.84682e-01
Si    8.24416e+00   8.06348e+00  -7.46361e-02  1.12009e-01   2.43029e-01   8.08561e-01
Si    5.38692e+00   8.31824e+00   2.74363e+00  1.57881e+00  -1.86491e+00   1.66987e-01
Si    8.11999e+00   5.42964e+00   2.71783e+00 -6.32945e-01  -4.12796e-01  -6.98398e-01
Si    6.74154e+00   6.84358e+00   1.32149e+00  4.76392e-01   6.20751e-01   1.12425e+00
Si    9.47850e+00   9.56379e+00   1.33222e+00 -1.14573e-01  -4.24824e-02  -1.19107e+00
Si    6.82715e+00   9.53962e+00   4.15910e+00 -5.91806e-01   8.42028e-02   6.52133e-01
Si    9.45229e+00   6.81951e+00   4.00523e+00  7.58986e-01   2.31464e-02  -7.18108e-01
Si    1.08125e+01   1.08659e+01   5.39742e+00 -3.94839e-01   8.29553e-01   7.86834e-01
Si    2.66515e+00   2.84125e+00   5.45425e+00  2.13066e-01  -2.17412e+00  -1.05805e+00
Si    8.40949e-02   2.79107e+00   8.17199e+00 -1.21232e+00  -6.20561e-01  -1.68406e+00
Si    2.61238e+00   6.70185e-02   8.10525e+00  1.59085e+00  -6.90295e-01   1.75491e+00
Si    1.40972e+00   1.36735e+00   6.75942e+00 -1.98581e+00   9.46914e-01  -6.35996e-01
Si    3.98282e+00   4.06398e+00   6.79729e+00  6.79927e-01   1.48599e+00   6.16070e-01
Si    1.38129e+00   3.99785e+00   9.51965e+00  5.32431e-01   1.05972e+00   1.92732e+00
Si    4.11732e+00   1.38938e+00   9.53339e+00  2.29273e-02  -2.24439e+00  -5.34360e-02
Si    5.39407e+00   1.07420e-02   5.62425e+00 -2.48271e-01   3.04120e-01  -1.74430e+00
Si    8.20764e+00   2.77887e+00   5.45703e+00 -8.17690e-01  -8.15623e-01   7.41904e-01
Si    5.32370e+00   2.88269e+00   8.33635e+00  1.15479e+00   2.27882e-01  -9.39133e-01
Si    8.12722e+00   8.84791e-02   8.19887e+00 -6.09624e-04  -7.12913e-01   1.32958e-01
Si    6.66352e+00   1.44521e+00   6.96655e+00  1.12108e+00   9.80895e-01  -7.51104e-01
Si    9.62731e+00   4.24259e+00   6.70905e+00 -5.47046e-01  -2.34973e+00   1.07899e+00
Si    6.74832e+00   4.29568e+00   9.67176e+00  1.24802e+00  -1.14595e+00  -1.56726e+00
Si    9.47770e+00   1.52701e+00   9.51322e+00  2.58111e-01  -8.02081e-01   1.82838e-01
Si    1.08179e+01   5.34555e+00   5.18288e+00  1.12895e+00   1.39897e+00   1.45659e-01
Si    2.71167e+00   7.98740e+00   5.37620e+00 -1.37552e+00   2.02746e+00   5.80787e-01
Si    1.09273e+01   8.25854e+00   8.07112e+00 -3.34987e-01  -1.28219e+00  -3.31093e-02
Si    2.52102e+00   5.44766e+00   8.10200e+00  1.21853e+00  -8.18861e-01   8.18321e-02
Si    1.20450e+00   6.71389e+00   6.70607e+00  2.97749e-01   3.63606e-01  -8.93510e-01
Si    3.93449e+00   9.50341e+00   6.81363e+00  2.36703e-01  -9.96410e-01  -4.25158e-01
Si    1.32409e+00   9.49491e+00   9.48816e+00  4.22284e-01   1.47565e+00  -8.17140e-02
Si    3.96164e+00   6.72244e+00   9.44827e+00 -1.58607e-01   5.46225e-01  -2.15920e-01
Si    5.44892e+00   5.30202e+00   5.34895e+00 -4.00962e-01   6.78046e-01   1.22911e+00
Si    8.16117e+00   8.04778e+00   5.44955e+00 -2.70206e-01   1.00689e+00   2.06957e-01
Si    5.31641e+00   7.96014e+00   7.98941e+00  1.41456e+00   8.26261e-01   9.57375e-01
Si    8.32172e+00   5.50925e+00   8.14570e+00 -4.33604e-01  -8.23611e-01   1.48610e+00
Si    6.90055e+00   6.59073e+00   6.75144e+00 -1.69708e+00   1.11745e+00  -4.86610e-01
Si    9.44964e+00   9.49830e+00   6.83468e+00 -1.13183e-01   8.29179e-01  -8.65498e-01
Si    6.86072e+00   9.32462e+00   9.44751e+00 -9.82404e-01   4.72666e-01  -1.12702e+00
Si    9.76936e+00   6.81847e+00   9.49369e+00 -1.57913e+00   2.59827e-01  -3.64258e-01
