64
Lattice="10.862 0 0 0 10.862 0 0 0 10.862 " PBC="1 1 1" Properties=species:S:1:pos:R:3:force:R:3 Energy="-264.46221"
Si    1.09036e+01  -8.14223e-02   1.07999e+01  5.85479e-01  -6.20142e-01   4.60270e-01
Si    2.67626e+00   2.81905e+00   4.74395e-02  5.11903e-01  -1.47537e+00  -8.66135e-01
Si    6.20907e-02   2.64215e+00   2.66608e+00  1.06313e+00   2.60278e+00  -2.86952e-01
Si    2.73940e+00   1.08903e+01   2.66083e+00 -9.59531e-01  -2.79341e-01  -1.07555e+00
Si    1.26323e+00   1.32036e+00   1.26352e+00  1.96090e+00   7.55193e-02   4.72013e-01
Si    4.16658e+00   4.15174e+00   1.25353e+00 -9.04123e-01  -7.27907e-01   9.20965e-01
Si    1.35716e+00   4.09201e+00   4.11128e+00  6.15502e-01  -7.27690e-01  -8.51710e-01
Si    4.09653e+00   1.34813e+00   3.98914e+00  7.96838e-01   1.41329e+00   7.75591e-01
Si    5.35158e+00  -1.63814e-01   1.08002e+01 -8.01044e-02   1.27523e+00   1.91439e+00
Si    8.18824e+00   2.53814e+00   1.09871e+01 -4.61654e-02   1.56954e+00   1.23701e+00
Si    5.48812e+00   2.81451e+00   2.64759e+00 -1.03640e+00  -7.95506e-01   7.33464e-01
Si    8.15071e+00   4.00153e-02   2.78375e+00  1.80699e+00   1.13328e+00  -4.23786e-01
Si    6.71093e+00   1.27892e+00   1.45063e+00  1.08716e-01  -7.23386e-01  -1.38320e+00
Si    9.49020e+00   4.10749e+00   1.50732e+00 -8.05941e-01  -5.48501e-01  -7.05927e-01
Si    6.76225e+00   4.01630e+00   4.17046e+00  4.10972e-01   9.82548e-01  -4.55211e-01
Si    9.81628e+00   1.44296e+00   4.06570e+00 -2.95960e+00  -2.57379e+00   6.88169e-01
Si    1.06320e+01   5.44997e+00  -8.44870e-02  9.18956e-01  -7.33061e-01   1.43928e-01
Si    2.66393e+00   8.03559e+00  -5.50239e-02 -5.38274e-01  -1.88215e+00  -3.96036e-01
Si   -7.32763e-02   8.06209e+00   2.80295e+00  1.62753e-01   1.49776e+00  -1.55142e+00
Si    2.65961e+00   5.37844e+00   2.54537e+00 -9.42843e-01   1.79862e-01   2.18148e-01
Si    1.15931e+00   6.75060e+00   1.21914e+00  8.46251e-01   1.07462e-02   1.22144e+00
Si    3.84208e+00   9.39262e+00   1.19570e+00  2.92344e+00   6.48704e-01   2.50404e+00
Si    1.45587e+00   9.48270e+00   3.99421e+00  3.76420e-03  -9.40678e-01   3.77390e-01
Si    4.02610e+00   6.63762e+00   3.91703e+00  7.15666e-01   8.22202e-01   8.55551e-01
Si    5.50962e+00   5.44758e+00  -6.09270e-03  5.03829e-01  -1.86756e-01  -3.92824e-02
Si    8.14555e+00   8.07834e+00   1.08617e+01 -1.00957e+00   1.77388e+00   6.49928e-01
Si    5.41710e+00   8.11208e+00   2.76577e+00 -9.68396e-01   8.74480e-01  -1.79566e+00
Si    8.15692e+00   5.49626e+00   2.94036e+00 -8.65860e-01  -1.35094e+00  -1.39429e+00
Si    6.82486e+00   6.76312e+00   1.45239e+00  6.56701e-02   6.19452e-02  -1.83060e-01
Si    9.45975e+00   9.59403e+00   1.29708e+00  2.07360e-01  -1.74849e+00   1.26408e+00
Si    6.76544e+00   9.62237e+00   3.99586e+00 -1.64501e-01  -1.50283e+00   5.59391e-01
Si    9.40831e+00   6.85024e+00   4.21036e+00  2.09984e+00  -9.66538e-01   7.06612e-01
Si    1.10034e+01   1.07819e+01   5.39985e+00 -2.71740e-01   8.56071e-01   2.25854e-01
Si    2.84951e+00   2.82024e+00   5.48111e+00 -1.44337e+00  -1.73570e+00  -1.06198e+00
Si    3.70978e-02   2.69492e+00   8.10806e+00 -4.19602e-01  -7.17000e-01   5.55736e-01
Si    2.84543e+00   1.31416e-01   8.10116e+00 -8.42378e-03  -2.59155e+00   1.59440e+00
Si    1.46077e+00   1.26306e+00   6.78301e+00 -4.87061e-01   2.30850e+00  -9.46700e-01
Si    4.06090e+00   4.18177e+00   6.82197e+00  4.67083e-01   1.51815e-02   1.38554e+00
Si    1.27390e+00   4.07072e+00   9.52247e+00 -9.19503e-02   6.52216e-01   8.91450e-02
Si    4.14930e+00   1.35770e+00   9.55471e+00 -1.16335e+00   1.16578e+00   1.83990e-01
Si    5.57635e+00   1.09615e+01   5.39630e+00 -1.62092e+00  -2.79999e-01   2.60877e-01
Si    8.31072e+00   2.71657e+00   5.32173e+00 -8.73062e-01  -3.08994e-01   1.81621e+00
Si    5.42295e+00   2.72188e+00   8.16060e+00  3.86739e-01   3.09400e-01  -7.87951e-02
Si    8.04054e+00   2.35092e-02   8.32758e+00  8.32739e-01   9.81119e-01  -2.79483e-01
Si    6.84376e+00   1.39470e+00   6.80542e+00  8.01022e-01   7.54421e-01  -6.36572e-02
Si    9.38123e+00   4.08303e+00   6.93157e+00  8.22636e-01   3.82136e-02  -6.92277e-01
Si    6.82730e+00   3.90132e+00   9.66274e+00 -8.42812e-01   4.38938e-01  -4.86403e-01
Si    9.62011e+00   1.36059e+00   9.67568e+00 -8.84471e-01  -2.84153e-01  -2.62551e+00
Si    1.09054e+01   5.36446e+00   5.55547e+00 -1.70916e+00   9.92506e-01  -6.01953e-01
Si    2.94623e+00   8.14926e+00   5.33152e+00 -1.34216e+00   4.67074e-01   6.48866e-01
Si    1.07864e+01   8.27660e+00   8.03108e+00  9.83201e-01   2.95231e-01   5.15977e-02
Si    2.66343e+00   5.48563e+00   8.26493e+00 -1.38184e+00  -1.06333e+00  -2.56741e+00
Si    1.37986e+00   6.88317e+00   6.69063e+00  6.91959e-01   1.14414e-01   1.20763e+00
Si    4.24554e+00   9.57271e+00   6.84324e+00 -2.81882e-01  -4.69405e-01  -1.04805e+00
Si    1.49438e+00   9.42345e+00   9.51797e+00 -1.14585e+00   1.68742e+00  -2.33093e+00
Si    4.03647e+00   6.63119e+00   9.50177e+00  1.28097e+00   2.01598e+00   1.09785e+00
Si    5.38645e+00   5.46949e+00   5.43229e+00 -4.02569e-01  -1.07360e+00  -1.18059e+00
Si    8.06210e+00   8.24435e+00   5.36016e+00  1.71388e-01   1.32632e+00   1.02639e+00
Si    5.43232e+00   7.99810e+00   8.17462e+00 -5.33197e-01   4.35985e-01  -8.13363e-01
Si    7.89301e+00   5.40266e+00   8.25924e+00  1.92051e+00   1.39188e+00  -9.10918e-01
Si    6.73507e+00   6.81702e+00   6.59830e+00  4.38039e-01  -8.78320e-02   2.42386e+00
Si    9.36548e+00   9.75251e+00   6.76553e+00  4.52348e-01  -1.86532e+00  -2.72817e-01
Si    6.65231e+00   9.41796e+00   9.50916e+00  1.76879e+00  -9.22263e-01   1.99224e-01
Si    9.48289e+00   6.95517e+00   9.44378e+00 -1.14066e+00  -1.98618e+00  -1.10048e+00
