64
Lattice="10.862 0 0 0 10.862 0 0 0 10.862 " PBC="1 1 1" Properties=species:S:1:pos:R:3:force:R:3 Energy="-264.59999"
Si    1.07783e+01   6.65118e-02   1.06506e+01  7.81927e-01  -2.70492e-02   1.10666e+00
Si    2.67457e+00   2.84500e+00   1.01119e-01 -2.83451e-01  -1.42720e+00  -1.90313e+00
Si    2.82645e-02   2.65612e+00   2.84739e+00  4.84829e-01   7.66065e-01  -5.54939e-01
Si    2.49845e+00   1.08848e+01   2.78467e+00 -4.37314e-01   6.21266e-01   4.16547e-01
Si    1.24857e+00   1.44274e+00   1.32924e+00  1.37959e-01  -1.16067e+00  -4.39134e-01
Si    4.06860e+00   4.06084e+00   1.40336e+00  1.38492e+00   1.20823e+00   1.47951e-01
Si    1.33302e+00   4.12393e+00   4.12041e+00  6.02879e-01   5.95029e-01  -6.55653e-01
Si    3.84184e+00   1.43795e+00   4.03850e+00  1.54038e+00  -8.87939e-01  -4.57428e-01
Si    5.46123e+00   1.03477e-01   1.09239e+01 -1.08289e+00  -5.36121e-01  -3.94405e-01
Si    8.25521e+00   2.65662e+00   1.07150e+01 -3.17683e-01   1.92407e+00   2.92605e-01
Si    5.46114e+00   2.59035e+00   2.66486e+00 -1.82669e+00   5.46763e-01  -1.69332e-01
Si    8.17470e+00   3.49182e-02   2.65638e+00 -2.59014e-01   3.93104e-01  -1.63025e+00
Si    6.84968e+00   1.49598e+00   1.19454e+00  5.41632e-01  -1.81210e+00   1.49569e+00
Si    9.53754e+00   3.92386e+00   1.53040e+00 -4.50609e-01   3.26150e-02  -2.36932e+00
Si    6.73561e+00   3.92183e+00   3.95341e+00  9.58954e-01   8.85670e-01   1.57980e+00
Si    9.47143e+00   1.34944e+00   3.98177e+00  1.70358e-01  -4.76212e-01   1.84629e+00
Si    1.06940e+01   5.40089e+00   6.95296e-02  1.42509e+00   2.71385e-01   5.46288e-01
Si    2.89030e+00   8.27282e+00   1.69134e-01 -1.30669e+00   1.08229e+00  -4.31169e-01
Si    5.12909e-02   8.09288e+00   2.72582e+00 -2.54674e-01   1.28948e+00   2.04369e-01
Si    2.73220e+00   5.58539e+00   2.63036e+00 -1.30448e+00  -2.32053e+00   2.73363e-01
Si    1.36544e+00   6.90867e+00   1.25477e+00 -3.24543e-01  -1.10765e+00   3.23999e-01
Si    4.09012e+00   9.72191e+00   1.65591e+00  7.96232e-01  -8.79175e-01  -2.12392e+00
Si    1.28372e+00   9.48274e+00   4.27281e+00  4.73177e-01  -9.95210e-01  -9.29341e-01
Si    4.09127e+00   6.67268e+00   4.03177e+00  9.42526e-01   2.32412e+00   4.75324e-01
Si    5.56005e+00   5.46990e+00   4.06185e-02 -8.73144e-01  -1.07692e+00   7.34721e-01
Si    8.19777e+00   8.29255e+00   1.08278e+01  1.22083e-01  -6.94926e-01  -7.84261e-01
Si    5.48865e+00   8.21024e+00   2.76557e+00 -3.10467e-02  -1.17946e+00  -5.27846e-01
Si    8.11920e+00   5.25645e+00   2.68194e+00  1.17565e-01   1.91241e+00   7.29444e-02
Si    6.94275e+00   6.87489e+00   1.27464e+00 -8.73184e-01  -3.49094e-01   1.70536e+00
Si    9.58471e+00   9.52034e+00   1.32796e+00  1.63988e-01   6.43733e-01   2.01797e-01
Si    6.85537e+00   9.58872e+00   3.99725e+00 -8.72809e-01  -3.82817e-01   9.59995e-01
Si    9.53647e+00   6.71646e+00   3.99817e+00 -9.98442e-01  -4.57307e-01   3.03544e-01
Si    1.06644e+01   1.08096e+01   5.48572e+00  1.18481e+00   5.46957e-01   7.48888e-01
Si    2.59227e+00   2.67981e+00   5.46693e+00  1.52160e+00   1.86189e+00   7.63510e-01
Si    6.69535e-02   2.69979e+00   7.98536e+00 -3.31687e-01  -5.41399e-01   1.96569e+00
Si    2.73349e+00  -1.26042e-01   8.21528e+00  1.71137e+00   2.22421e+00  -1.35156e+00
Si    1.46088e+00   1.26844e+00   6.85411e+00 -1.85945e+00  -1.04867e+00  -1.02703e+00
Si    4.14537e+00   4.12374e+00   6.82720e+00 -8.31500e-01  -7.33750e-01  -1.34871e+00
Si    1.20010e+00   4.09536e+00   9.54311e+00  1.13750e+00  -9.53267e-02  -4.60176e-01
Si    4.07247e+00   1.38328e+00   9.48135e+00 -7.94173e-01   2.31092e-01   1.25890e+00
Si    5.29454e+00   1.08739e+01   5.28073e+00  1.47002e+00   9.28162e-01   1.36940e+00
Si    8.25187e+00   2.76151e+00   5.38856e+00 -1.03334e+00  -5.95441e-01  -1.32325e+00
Si    5.44147e+00   2.73522e+00   8.17100e+00  7.44947e-01  -6.47636e-01  -1.13551e+00
Si    8.10987e+00  -6.16325e-02   7.96432e+00 -8.30554e-01  -4.30241e-01   1.52244e+00
Si    6.96499e+00   1.42391e+00   6.71961e+00 -3.45746e+00  -4.68534e-01  -7.27733e-01
Si    9.50128e+00   3.97424e+00   6.80456e+00  4.95445e-01   2.43379e+00  -6.43071e-01
Si    6.77424e+00   4.09864e+00   9.45847e+00  1.09189e+00  -1.74049e-01   6.57984e-01
Si    9.39433e+00   1.33906e+00   9.21763e+00  1.70488e+00   1.06459e-01   4.49194e-01
Si    1.08607e+01   5.47266e+00   5.48673e+00 -1.19595e-01  -4.38950e-01   2.75116e-01
Si    2.80469e+00   8.01429e+00   5.52054e+00 -2.30976e-01   1.27007e+00  -1.35192e+00
Si    1.09368e+01   8.07640e+00   8.17300e+00 -2.78598e-01   1.13262e+00   3.46720e-01
Si    2.72765e+00   5.40567e+00   8.18112e+00 -3.43149e-01   9.51700e-02   1.17295e+00
Si    1.44107e+00   6.80362e+00   6.83370e+00 -7.49412e-01  -1.25959e+00   1.59793e-01
Si    4.07662e+00   9.48527e+00   6.80034e+00  8.24250e-01  -5.96889e-01   2.46717e-01
Si    1.47537e+00   9.55140e+00   9.49465e+00 -1.74894e+00  -2.15186e+00   1.78397e+00
Si    3.98513e+00   6.69732e+00   9.77965e+00  1.19188e+00   8.37780e-01  -2.31161e+00
Si    5.52171e+00   5.41883e+00   5.32141e+00 -2.97756e-03  -5.80958e-01   1.54536e+00
Si    8.02748e+00   8.01830e+00   5.31263e+00  1.03585e+00   5.66264e-01   8.26392e-01
Si    5.41284e+00   8.12156e+00   8.29504e+00 -1.12804e+00  -5.74422e-01  -2.63340e-01
Si    8.17004e+00   5.43473e+00   8.12938e+00  6.75856e-01  -8.10726e-01   7.49885e-01
Si    6.81259e+00   6.77607e+00   6.93550e+00 -1.23781e+00   1.43601e-01  -1.99284e+00
Si    9.37822e+00   9.33683e+00   6.82372e+00  9.91687e-01  -6.91538e-01  -1.23217e+00
Si    6.72834e+00   9.58088e+00   9.49699e+00  7.60746e-01   3.20376e-01   1.84362e-01
Si    9.51793e+00   6.78442e+00   9.52263e+00 -7.12910e-01   4.15699e-01  -1.75473e-01
