64
Lattice="10.862 0 0 0 10.862 0 0 0 10.862 " PBC="1 1 1" Properties=species:S:1:pos:R:3:force:R:3 Energy="-260.16636"
Si    1.10209e+01  -2.43353e-01   1.10662e+01 -5.28962e-01   1.94568e+00  -9.41774e-01
Si    2.64054e+00   2.67482e+00   5.74552e-02  2.34333e+00   6.86743e-01  -1.38090e+00
Si   -1.12617e-01   2.87694e+00   2.62702e+00  1.01307e+00  -1.03512e+00   1.06091e+00
Si    2.84071e+00   1.08773e+01   2.63502e+00 -2.22502e+00   6.53476e-01   1.63118e+00
Si    1.36176e+00   1.49565e+00   1.46040e+00 -5.20187e-01  -2.16548e+00  -2.08811e-02
Si    4.10390e+00   4.17255e+00   1.21804e+00 -8.73326e-01  -2.46811e+00   2.61502e+00
Si    1.33576e+00   4.03240e+00   4.04220e+00  1.94937e-01   2.67707e-01  -4.56684e-01
Si    4.24157e+00   1.33946e+00   4.00239e+00  5.70319e-01  -8.09029e-01  -1.62825e+00
Si    5.38981e+00  -3.51854e-03   1.08457e+01  1.02831e+00  -2.70613e-01  -7.68389e-01
Si    8.22131e+00   2.54538e+00   1.07868e+01  7.92927e-01   1.17075e+00  -6.75457e-01
Si    5.60074e+00   2.56971e+00   2.52575e+00 -1.80950e+00   2.82781e+00   1.32300e+00
Si    8.09379e+00   8.63538e-02   2.88294e+00  5.16392e-02  -9.91949e-01  -1.16577e+00
Si    6.83322e+00   1.27336e+00   1.24114e+00  9.70128e-01  -1.09778e+00   2.48844e-01
Si    9.35164e+00   4.08645e+00   1.35810e+00  1.64943e-01   6.30234e-01  -1.45577e+00
Si    6.79748e+00   3.93439e+00   4.20102e+00 -5.70445e-01  -1.99341e-01  -4.73529e-01
Si    9.52068e+00   1.51944e+00   4.04928e+00 -2.17820e-01  -2.01702e-01   1.50845e+00
Si    1.09515e+01   5.39255e+00   3.02088e-02 -2.14890e+00   4.44045e-01   4.32103e-01
Si    2.62899e+00   8.11463e+00   7.27616e-02  3.99093e-01   3.75651e-01  -2.10497e+00
Si   -1.11199e-01   8.05149e+00   2.77470e+00 -5.60145e-02  -5.73552e-02  -1.07429e+00
Si    2.78128e+00   5.42173e+00   2.85399e+00 -5.11287e-02   3.16711e-01  -1.63200e+00
Si    1.39783e+00   6.73961e+00   1.40561e+00 -7.84763e-01  -2.27756e-01   1.33938e+00
Si    4.02009e+00   9.60614e+00   1.23991e+00  2.41327e-01  -2.09123e+00   7.53771e-01
Si    1.22364e+00   9.47848e+00   3.96916e+00  1.01311e+00   2.66284e+00   1.24284e+00
Si    4.01681e+00   7.00970e+00   4.07152e+00  5.89628e-03  -2.93287e+00   2.29006e+00
Si    5.26472e+00   5.43773e+00  -1.42115e-01  2.56074e+00  -1.24764e-02  -4.58360e-01
Si    8.13484e+00   7.97240e+00   1.10510e+01 -1.74263e+00   6.59744e-01  -5.28439e-01
Si    5.24140e+00   8.16906e+00   2.74987e+00  2.30136e+00   1.88381e+00  -1.53241e+00
Si    7.88884e+00   5.32324e+00   2.72364e+00  1.66951e+00   4.23717e-01   1.12340e+00
Si    6.51172e+00   6.62153e+00   1.50032e+00  1.34810e-01   1.46571e+00  -1.76464e+00
Si    9.40578e+00   9.49830e+00   1.45925e+00  1.37222e-01  -3.89409e-01   6.84768e-01
Si    6.80810e+00   9.39584e+00   4.18019e+00 -4.86921e-01   9.63815e-01  -1.48019e-02
Si    9.25977e+00   6.84895e+00   4.09252e+00  1.38662e+00  -2.19600e+00  -8.39774e-01
Si    1.08737e+01   1.10821e+01   5.55593e+00 -1.36124e+00  -2.90324e+00  -1.99813e+00
Si    2.96725e+00   2.73916e+00   5.14143e+00 -2.47495e+00   1.30210e-01   1.96133e+00
Si    1.82935e-01   2.76844e+00   8.03679e+00 -4.08841e-01   8.55708e-01   4.70213e-01
Si    2.68567e+00  -4.42946e-02   8.22152e+00 -5.82962e-01   2.56506e-01  -1.00462e+00
Si    1.50814e+00   1.41543e+00   6.63170e+00  1.98535e+00   9.98085e-01   1.29018e+00
Si    4.07453e+00   4.09547e+00   6.63732e+00  9.89571e-01   6.37124e-03   2.03655e+00
Si    1.41962e+00   4.11201e+00   9.58761e+00 -6.35703e-01  -1.17622e+00  -1.15195e+00
Si    4.13513e+00   1.32259e+00   9.46758e+00 -4.94337e-01   1.36158e+00  -4.83824e-02
Si    5.48808e+00   1.09572e+01   5.48422e+00  2.22661e-01  -1.80086e+00   6.11924e-01
Si    8.21587e+00   2.74159e+00   5.66775e+00  1.94509e+00   1.91310e+00  -3.11327e+00
Si    5.66331e+00   2.68401e+00   8.06236e+00 -2.29687e+00   4.93359e-01  -2.18520e-01
Si    8.04834e+00   5.54828e-02   8.27650e+00  2.50078e+00  -3.16601e-02   1.36146e+00
Si    7.04957e+00   1.36182e+00   6.75297e+00 -3.35455e+00  -1.49942e+00   1.34495e+00
Si    9.48804e+00   4.28169e+00   6.87782e+00  2.41991e+00  -2.74518e+00  -1.25549e+00
Si    6.88267e+00   4.08775e+00   9.46855e+00 -9.35151e-02   3.77944e-03   4.08788e-01
Si    9.89792e+00   1.29464e+00   9.48458e+00 -2.18115e+00  -7.17487e-01   6.17441e-01
Si    1.07963e+01   5.40308e+00   5.29115e+00 -9.75880e-01   4.99490e-01  -1.52749e-01
Si    2.75116e+00   8.39539e+00   5.40042e+00 -2.32885e+00  -2.41166e+00  -8.11253e-01
Si    1.07815e+01   8.00617e+00   8.04292e+00  4.32931e-02  -9.07600e-01   1.55207e-01
Si    2.54247e+00   5.42396e+00   8.08323e+00  1.83322e+00  -2.38228e-01  -1.11254e+00
Si    1.33609e+00   6.71167e+00   6.51583e+00  2.11524e-01   1.85051e+00   1.35399e+00
Si    4.00652e+00   9.46287e+00   6.85242e+00  1.04072e+00   3.19860e+00  -7.80079e-01
Si    1.19257e+00   9.33918e+00   9.37767e+00  1.93103e+00   4.31392e-01   1.53670e+00
Si    3.95723e+00   6.74957e+00   9.41846e+00 -8.40265e-01   1.19407e+00  -2.57723e-01
Si    5.54704e+00   5.50848e+00   5.47111e+00 -1.88534e+00   1.51173e-01  -1.64356e+00
Si    8.31590e+00   8.20306e+00   5.61208e+00 -2.62427e+00   3.50917e-01   3.37716e-01
Si    5.30477e+00   8.09762e+00   7.99615e+00  8.61144e-01   5.14586e-01   3.63599e+00
Si    8.23945e+00   5.50571e+00   8.13440e+00 -3.26101e+00   4.61089e-01   9.12262e-01
Si    6.73385e+00   6.85816e+00   6.84989e+00  2.56649e+00  -4.78365e-01  -6.31713e-01
Si    9.48936e+00   9.60598e+00   7.04581e+00  1.00975e+00   7.89188e-01  -1.94923e+00
Si    6.77999e+00   9.45016e+00   9.57065e+00 -8.76838e-01  -1.39272e+00  -2.09708e-01
Si    9.42690e+00   6.72432e+00   9.54169e+00  2.15235e+00   6.10707e-01   9.67560e-01
