64
Lattice="10.862 0 0 0 10.862 0 0 0 10.862 " PBC="1 1 1" Properties=species:S:1:pos:R:3:force:R:3 Energy="-262.66005"
Si    1.10609e+01  -7.77279e-02   1.08597e+01 -6.98032e-01   1.08222e+00   1.09865e+00
Si    2.87521e+00   2.72770e+00   5.20204e-02 -1.32613e+00   7.95955e-01  -1.39578e+00
Si   -1.44690e-01   2.65445e+00   2.64824e+00  1.50214e+00  -1.21188e-01  -1.43398e+00
Si    2.88911e+00   1.09082e+01   2.62449e+00 -7.56706e-01  -1.56438e+00   1.55226e+00
Si    1.57969e+00   1.46287e+00   1.43816e+00 -2.39897e+00  -9.99109e-01  -9.74299e-01
Si    3.89100e+00   4.32119e+00   1.33706e+00  1.51440e+00  -2.28814e+00   1.25919e+00
Si    1.20263e+00   3.91645e+00   3.94510e+00  1.25400e+00   5.08283e-01   1.37959e+00
Si    4.01168e+00   1.34208e+00   4.20911e+00 -5.59318e-01   1.14069e+00  -1.41264e+00
Si    5.44624e+00   4.09328e-02   1.07338e+01  2.68294e-01   6.19352e-01  -2.74055e-01
Si    7.91240e+00   2.78023e+00   1.08171e+01  1.93081e+00  -7.35415e-01   1.62051e+00
Si    5.24763e+00   2.82788e+00   2.80784e+00 -5.84116e-02  -2.73647e-01  -1.02243e+00
Si    8.14933e+00   3.92263e-02   2.60829e+00 -6.02372e-02  -1.16141e+00   3.94490e-02
Si    6.67041e+00   1.35820e+00   1.50512e+00 -8.22913e-01   1.33479e+00  -1.88772e+00
Si    9.62981e+00   4.13354e+00   1.19723e+00 -2.14115e+00  -5.88747e-03   4.12201e-01
Si    6.79386e+00   4.03014e+00   4.04405e+00  1.04151e-01  -7.35511e-01   1.19022e+00
Si    9.54256e+00   1.22340e+00   3.94697e+00 -1.05001e-01  -5.84786e-01   1.63325e+00
Si    1.10346e+01   5.59015e+00  -7.43200e-02  3.70720e-01  -8.59355e-01   2.11123e+00
Si    2.68796e+00   7.97856e+00  -3.96835e-02 -7.88350e-02   1.75056e+00   1.02042e+00
Si   -5.75613e-02   8.21044e+00   2.64156e+00 -7.88522e-01   2.14838e+00   2.75295e+00
Si    2.67844e+00   5.41892e+00   2.86133e+00 -4.02843e-01   1.42326e+00   1.22894e+00
Si    1.32469e+00   6.90892e+00   1.68523e+00  1.87335e+00  -2.30269e+00  -3.98834e+00
Si    4.15191e+00   9.50683e+00   1.16487e+00 -9.35450e-01  -6.07871e-01   7.33562e-01
Si    1.42944e+00   9.48973e+00   4.14564e+00  1.03318e+00  -3.18642e-01  -1.13604e+00
Si    4.20825e+00   6.86643e+00   4.17029e+00 -1.54064e+00  -5.25697e-01  -4.49708e-01
Si    5.29087e+00   5.55171e+00   1.17293e-01  1.12963e+00  -2.73367e-01  -1.54741e+00
Si    8.22700e+00   8.11657e+00   1.07661e+01 -9.09886e-01  -2.24599e+00   6.68357e-01
Si    5.44001e+00   8.23095e+00   2.69307e+00  4.01169e-01  -1.32096e+00  -1.02410e+00
Si    8.19148e+00   5.39324e+00   2.80000e+00  1.51832e+00   4.45723e-01  -6.25058e-01
Si    6.81523e+00   6.65979e+00   1.40821e+00  4.39218e-01   2.54079e+00  -1.37433e-01
Si    9.41903e+00   9.48395e+00   1.24338e+00  1.70286e+00   9.82844e-01   2.05064e-01
Si    6.83136e+00   9.52531e+00   3.93828e+00 -4.45790e-01   1.15403e+00   9.00419e-01
Si    9.58641e+00   6.94833e+00   4.16907e+00 -1.35329e-01  -2.55961e+00  -1.48427e+00
Si    1.08358e+01   1.06964e+01   5.47399e+00  8.60098e-02   1.99800e+00  -3.46581e-01
Si    2.48796e+00   2.59614e+00   5.47681e+00  1.72500e-01   6.76160e-01   3.02252e-01
Si   -9.41340e-02   2.73471e+00   8.27474e+00 -1.19625e+00   1.65979e-01   3.83734e-01
Si    2.64742e+00   1.24273e-01   8.10309e+00  1.24817e+00  -1.27951e+00  -2.41287e-01
Si    1.12507e+00   1.36543e+00   6.97316e+00  4.25416e-01  -8.65141e-01  -2.32834e+00
Si    3.91832e+00   4.00105e+00   6.83230e+00 -2.21139e-01   1.32001e+00  -1.83173e+00
Si    1.38253e+00   4.05240e+00   9.53101e+00  1.22297e+00   4.75316e-01   2.88878e-02
Si    4.04665e+00   1.47548e+00   9.30738e+00  6.83561e-01  -7.58712e-01   2.14066e+00
Si    5.38316e+00   1.08794e+01   5.35190e+00  1.75055e+00  -1.41821e+00   1.07274e+00
Si    8.12125e+00   2.43572e+00   5.35492e+00 -1.23839e-01   1.72265e+00  -5.18305e-01
Si    5.34571e+00   2.89117e+00   8.10649e+00  2.20027e+00  -1.94081e+00  -3.38082e-01
Si    8.30512e+00  -6.47428e-02   8.28308e+00 -2.02356e+00  -4.68852e-01  -1.78286e+00
Si    6.79926e+00   1.24653e+00   6.80031e+00 -6.20339e-01   3.77765e-01   1.38347e+00
Si    9.36543e+00   3.90802e+00   6.72534e+00  6.11671e-01   7.07651e-01   4.29859e-01
Si    6.64848e+00   4.20338e+00   9.55674e+00 -1.73981e-01   8.01813e-01  -9.61438e-01
Si    9.46795e+00   1.28511e+00   9.67327e+00  8.30399e-01   1.26170e+00   2.03346e-01
Si    1.08410e+01   5.25940e+00   5.37608e+00  6.26675e-02   1.68317e+00   1.27590e+00
Si    2.88811e+00   8.17675e+00   5.66378e+00 -9.94057e-01  -4.91824e-03  -2.51533e+00
Si    1.09596e+01   8.00449e+00   8.17579e+00 -4.66536e-01   2.61506e+00  -1.31614e+00
Si    2.80615e+00   5.51944e+00   8.20346e+00 -1.76490e+00  -1.93962e+00  -6.84136e-01
Si    1.46020e+00   6.80800e+00   6.81849e+00 -8.43674e-01  -2.02474e+00  -8.90604e-01
Si    4.18886e+00   9.54251e+00   6.88053e+00 -9.08454e-01   1.96132e+00  -7.29563e-02
Si    1.49284e+00   9.49235e+00   9.41888e+00 -7.44968e-01  -1.02063e+00   6.35283e-01
Si    4.09235e+00   6.80895e+00   9.45390e+00  1.24014e+00   8.59203e-01   6.29097e-01
Si    5.40183e+00   5.33737e+00   5.43593e+00  5.43966e-01   3.01455e-01   6.97291e-01
Si    8.15522e+00   8.22233e+00   5.31293e+00 -7.96302e-01   9.61661e-02   4.72528e-01
Si    5.48966e+00   8.24356e+00   8.17133e+00  2.05437e-02  -2.27079e+00  -8.09183e-01
Si    8.11229e+00   5.47451e+00   8.07072e+00  2.58511e-02  -4.98843e-01   2.36129e-01
Si    6.82183e+00   6.90190e+00   6.64773e+00 -9.29448e-01  -9.72924e-01   1.05208e+00
Si    9.45558e+00   9.40862e+00   6.73577e+00  1.22564e+00  -3.89855e-01   2.05953e+00
Si    6.82832e+00   9.40164e+00   9.49795e+00  6.81616e-01   2.06261e+00   5.65424e-01
Si    9.65029e+00   6.71820e+00   9.43811e+00 -2.10257e+00   3.24295e-01   5.57657e-02
