64
Lattice="10.862 0 0 0 10.862 0 0 0 10.862 " PBC="1 1 1" Properties=species:S:1:pos:R:3:force:R:3 Energy="-263.5897"
Si    1.07665e+01   6.44123e-03   1.08035e+01 -2.78282e-01   1.56373e+00  -5.66477e-01
Si    2.72354e+00   2.53245e+00  -7.90782e-02  5.20544e-01   9.74128e-01  -8.36390e-01
Si    7.76800e-02   2.54121e+00   2.84682e+00  3.64673e-01   1.01595e+00  -1.60924e+00
Si    2.75154e+00   1.08329e+01   2.68182e+00  1.41866e-01  -5.18552e-01  -9.80985e-01
Si    1.41561e+00   1.22795e+00   1.19635e+00 -1.26708e+00   2.90481e-01   2.24458e+00
Si    3.99118e+00   3.89726e+00   1.32959e+00  4.95375e-01   1.38711e+00  -3.53247e-01
Si    1.35377e+00   4.14264e+00   4.06963e+00 -5.69576e-01  -7.33523e-01   6.40798e-01
Si    4.03673e+00   1.27101e+00   4.09425e+00  4.25706e-01   1.38890e+00  -4.18046e-01
Si    5.68469e+00  -7.85027e-02   1.10037e+01 -3.17301e+00   9.51893e-01  -9.85315e-01
Si    8.00109e+00   2.76602e+00   1.10309e+01  1.52861e+00   4.06845e-01  -8.16637e-01
Si    5.39320e+00   2.71673e+00   2.77325e+00  4.61490e-01  -1.83635e-02   1.74339e-01
Si    8.12279e+00  -1.23126e-03   2.76576e+00  5.10178e-01   5.31688e-01   1.84227e+00
Si    6.81459e+00   1.34515e+00   1.47562e+00 -2.39258e-01   5.95202e-01   7.36651e-01
Si    9.60891e+00   4.05820e+00   1.47010e+00  4.13772e-01  -2.38243e+00  -7.65674e-01
Si    6.80564e+00   4.32620e+00   3.94647e+00 -8.26872e-01  -1.02756e+00   5.24772e-01
Si    9.52155e+00   1.38190e+00   4.26103e+00 -6.93155e-01  -6.27898e-01  -1.71459e+00
Si    1.09658e+01   5.29710e+00   7.31098e-02  3.41799e-01   4.58375e-02  -1.10274e+00
Si    2.73306e+00   8.15499e+00  -1.28268e-01 -1.31114e+00   1.26718e+00   1.00248e+00
Si   -6.67221e-02   8.22121e+00   2.62000e+00  1.80181e+00  -2.24946e-01   6.69216e-02
Si    2.66130e+00   5.36306e+00   2.61520e+00  2.77761e-02   3.96594e-01  -1.56799e-01
Si    1.36835e+00   6.82187e+00   1.28937e+00 -8.79522e-02   2.32412e-01   1.46830e-01
Si    4.11880e+00   9.47948e+00   1.26738e+00  3.57023e-01  -6.70078e-01   1.21075e+00
Si    1.39335e+00   9.48893e+00   3.97799e+00 -3.73394e-01   1.09200e-01   1.13275e+00
Si    3.92747e+00   6.81302e+00   3.93389e+00  9.88692e-01  -1.35872e-01   1.01537e+00
Si    5.30543e+00   5.52334e+00   1.36601e-02 -6.95820e-01  -1.13016e+00   9.60605e-01
Si    8.10420e+00   8.06648e+00   1.08847e+01  8.55626e-01   1.41407e+00  -2.74240e-01
Si    5.47712e+00   8.04773e+00   2.72048e+00 -9.78042e-01   1.62473e+00  -3.10148e-01
Si    8.38633e+00   5.43737e+00   2.67502e+00 -2.14508e+00   1.78300e+00   1.11326e-01
Si    6.80104e+00   6.76554e+00   1.34925e+00  5.16894e-01  -1.16556e+00   5.80582e-01
Si    9.48358e+00   9.63068e+00   1.38324e+00 -1.17379e+00  -1.63222e+00  -1.05569e+00
Si    6.67215e+00   9.54689e+00   4.14929e+00  1.07314e+00  -8.22439e-01   5.96832e-01
Si    9.64359e+00   6.83335e+00   4.01545e+00 -1.87045e+00   5.76852e-01   6.67421e-01
Si    1.09886e+01   1.09260e+01   5.46515e+00 -8.80482e-01  -1.64502e+00  -9.74613e-02
Si    2.78184e+00   2.74849e+00   5.36263e+00 -4.68090e-01   5.02833e-01   3.62017e-01
Si   -1.34223e-02   2.78342e+00   8.11473e+00 -8.78043e-01  -5.22826e-01  -1.18020e+00
Si    2.86518e+00   1.62736e-02   8.09116e+00 -1.99398e+00   4.88469e-01  -3.07569e-01
Si    1.41793e+00   1.43700e+00   6.75927e+00  6.62027e-01   4.34659e-02   9.34758e-01
Si    4.15803e+00   4.12050e+00   6.71828e+00  2.90514e-01  -1.26593e-01   1.08197e-01
Si    1.44258e+00   3.97811e+00   9.38702e+00 -3.76906e-01   4.48889e-01   1.67373e+00
Si    4.15583e+00   1.20019e+00   9.51532e+00  2.05135e+00   9.88872e-01   3.93099e-01
Si    5.35326e+00   1.09913e+01   5.57335e+00  2.11593e+00  -3.19039e-01  -1.67866e+00
Si    8.12051e+00   2.92687e+00   5.29752e+00 -1.26858e+00  -2.14406e+00   6.98642e-01
Si    5.55878e+00   2.69210e+00   8.13200e+00 -2.07426e+00  -8.89733e-01  -2.88980e-01
Si    8.34838e+00  -1.33178e-01   8.21738e+00 -3.26551e+00   7.64110e-01   4.25923e-01
Si    6.96145e+00   1.30695e+00   6.83836e+00  2.26274e-01   9.35160e-01  -5.00981e-01
Si    9.37109e+00   4.09149e+00   6.69325e+00  9.62363e-01   8.06813e-01   2.23768e+00
Si    6.53304e+00   4.00356e+00   9.67463e+00  1.97085e+00   7.11926e-01  -1.37238e-01
Si    9.36277e+00   1.51433e+00   9.45462e+00  1.28751e+00  -3.64564e-01   1.48632e+00
Si    1.07368e+01   5.48534e+00   5.45350e+00  2.00116e+00  -3.59350e-01   7.67406e-02
Si    2.75655e+00   8.16326e+00   5.45805e+00 -1.72851e+00  -2.52459e-01  -7.94205e-01
Si    1.07610e+01   8.28070e+00   8.19010e+00  6.06057e-01  -1.29115e+00   1.14440e+00
Si    2.66806e+00   5.40608e+00   8.05657e+00  3.23724e-01   1.55601e-01  -6.44343e-02
Si    1.23517e+00   6.85634e+00   6.86368e+00  5.67295e-01   6.90572e-02  -8.93665e-01
Si    4.08083e+00   9.59728e+00   6.67215e+00 -3.06306e-02  -1.93623e+00   1.68160e+00
Si    1.36899e+00   9.69683e+00   9.47586e+00  1.30315e-01  -1.84627e+00  -5.86083e-01
Si    3.93484e+00   6.76925e+00   9.47039e+00  1.35412e+00  -4.56558e-02  -1.41508e+00
Si    5.44479e+00   5.67263e+00   5.39752e+00 -5.42475e-01  -1.72596e+00  -5.72445e-01
Si    8.18761e+00   8.05889e+00   5.53571e+00 -1.27569e+00   6.26354e-02  -1.43047e+00
Si    5.36030e+00   8.12344e+00   8.05800e+00 -6.36984e-01   3.26691e-01   1.07174e+00
Si    7.98214e+00   5.27875e+00   8.27673e+00  1.62335e+00  -2.40553e-01   8.18900e-01
Si    6.79846e+00   6.68113e+00   6.96902e+00  5.49327e-02   1.73114e+00  -1.52774e+00
Si    9.47032e+00   9.49529e+00   6.75495e+00  1.93000e+00   4.69741e-01  -7.92321e-01
Si    6.66395e+00   9.45946e+00   9.52311e+00  2.88018e+00  -1.05232e+00  -1.25266e+00
Si    9.54738e+00   6.63365e+00   9.63099e+00 -7.59902e-01   7.90176e-01  -1.30260e+00
