64
Lattice="10.862 0 0 0 10.862 0 0 0 10.862 " PBC="1 1 1" Properties=species:S:1:pos:R:3:force:R:3 Energy="-264.12919"
Si    1.07700e+01   7.93573e-02   1.07885e+01  1.24148e+00  -1.45351e-01   1.29599e+00
Si    2.56128e+00   2.62692e+00  -5.30056e-02  1.71694e+00   1.23549e-01   1.07582e+00
Si   -1.06577e-01   2.67506e+00   2.83345e+00  1.74778e+00   3.52778e-01  -1.12122e+00
Si    2.74892e+00   1.09150e+01   2.71069e+00 -2.45307e-01  -2.66419e+00   5.90763e-01
Si    1.37690e+00   1.29981e+00   1.44315e+00 -2.23136e+00   1.04154e+00  -8.44659e-01
Si    4.05555e+00   3.98634e+00   1.26174e+00  1.04227e+00  -3.07660e-01   4.88365e-01
Si    1.33232e+00   4.09255e+00   4.10275e+00  1.10851e+00  -8.31331e-01  -1.07849e+00
Si    4.11908e+00   1.33542e+00   4.09155e+00  8.89119e-01  -8.76151e-01  -6.01005e-01
Si    5.56431e+00  -9.53184e-02   1.08691e+01 -1.06190e+00   1.14966e+00   1.79226e-01
Si    8.09540e+00   2.72913e+00   1.09254e+01  7.74961e-01   1.14278e-01  -6.27512e-01
Si    5.50629e+00   2.62510e+00   2.75522e+00 -7.23548e-01   1.55997e+00  -4.61867e-01
Si    8.20234e+00  -1.29023e-01   2.76312e+00  4.67982e-01   2.48409e+00  -8.29257e-01
Si    6.86496e+00   1.35097e+00   1.43184e+00 -4.60124e-02  -1.60516e+00  -2.85903e-01
Si    9.55285e+00   4.07047e+00   1.39019e+00  7.82321e-03   4.77093e-01  -6.50928e-01
Si    6.84717e+00   4.12161e+00   4.05608e+00 -1.13428e+00   2.83609e-02   5.31967e-01
Si    9.41140e+00   1.39882e+00   4.13593e+00 -1.00921e+00  -1.66800e-01   8.36287e-01
Si    1.10440e+01   5.47590e+00   2.12961e-02 -5.71116e-01  -1.59999e+00   7.70188e-01
Si    2.54764e+00   8.13226e+00  -1.76268e-01  1.94829e+00  -1.84855e-01   9.67923e-01
Si    4.41702e-02   8.17431e+00   2.60135e+00 -6.98728e-02  -1.79148e+00  -5.80355e-01
Si    2.93870e+00   5.37027e+00   2.78226e+00 -1.58436e+00  -3.41069e-01   9.57629e-02
Si    1.60524e+00   6.71932e+00   1.43397e+00 -1.70776e+00   8.51938e-01  -4.13598e-01
Si    4.04337e+00   9.38516e+00   1.25553e+00  2.37401e-01   5.16364e-01   1.05704e+00
Si    1.07910e+00   9.47935e+00   4.03643e+00  3.44842e+00   2.36766e+00   9.00225e-01
Si    4.02391e+00   6.92612e+00   4.10917e+00  1.26915e+00  -2.15174e+00   1.01218e+00
Si    5.40116e+00   5.51501e+00  -4.42843e-02 -2.10572e+00  -7.74488e-01  -2.34328e-01
Si    8.19365e+00   8.09596e+00   1.09295e+01  2.88995e-01   4.45449e-01  -5.46294e-01
Si    5.45033e+00   8.11235e+00   2.88064e+00 -1.23548e-02   1.88167e+00  -2.23956e+00
Si    8.12110e+00   5.46235e+00   2.65398e+00 -1.21307e-01   8.53254e-01  -6.86482e-01
Si    6.63730e+00   6.87877e+00   1.25567e+00  1.57089e+00  -6.23232e-01   2.08590e+00
Si    9.56805e+00   9.51921e+00   1.33602e+00 -5.98036e-01  -2.51431e-01  -5.28556e-01
Si    6.78909e+00   9.66674e+00   4.08856e+00  2.92404e-01  -3.23469e+00   1.23395e+00
Si    9.52817e+00   6.86613e+00   3.95068e+00 -2.05697e-01  -1.04307e+00  -1.54466e-01
Si    1.07955e+01   1.09911e+01   5.49242e+00  5.97745e-01  -7.45247e-01  -1.94313e-01
Si    2.85985e+00   2.69920e+00   5.30499e+00 -2.81030e+00   9.20794e-02   1.01758e+00
Si   -5.02785e-02   2.80326e+00   8.13707e+00 -3.70719e-01  -5.41376e-01  -4.96626e-01
Si    2.73074e+00  -4.56687e-02   8.12332e+00  2.67385e-01   1.20893e+00   8.33056e-02
Si    1.40581e+00   1.44717e+00   6.83001e+00  1.80818e-01  -7.63381e-02  -8.09639e-01
Si    4.04408e+00   4.08164e+00   6.60129e+00  8.75005e-01   4.33646e-01   2.75767e+00
Si    1.38809e+00   4.00454e+00   9.45951e+00 -1.23835e+00   1.01754e+00   2.51682e-01
Si    4.06154e+00   1.36534e+00   9.55300e+00  8.53284e-01  -7.33970e-01  -5.10552e-01
Si    5.45167e+00   1.08619e+01   5.49211e+00 -4.31125e-01   7.43565e-01   8.78753e-01
Si    8.06589e+00   2.83594e+00   5.57488e+00 -2.95425e-01  -1.80477e+00  -9.94353e-01
Si    5.44793e+00   2.86932e+00   8.24002e+00 -2.07240e+00  -1.54058e+00  -1.28892e+00
Si    8.40690e+00  -1.68292e-01   8.03073e+00 -2.58770e+00   1.29240e+00   1.10682e+00
Si    6.75657e+00   1.35715e+00   6.98178e+00  9.90822e-01  -2.67806e-01  -9.31173e-01
Si    9.40375e+00   4.18512e+00   6.77575e+00  7.15796e-01   6.09088e-02   1.44503e+00
Si    6.69555e+00   4.09614e+00   9.60286e+00  1.18326e+00   3.01307e-02   9.54722e-01
Si    9.44845e+00   1.37056e+00   9.45393e+00  1.44969e-02   9.25727e-01  -4.57557e-02
Si    1.07692e+01   5.39410e+00   5.31639e+00  4.88492e-01   1.77407e+00   9.76225e-01
Si    2.71323e+00   8.26548e+00   5.36276e+00 -1.74570e+00   8.02731e-02   9.14422e-02
Si    1.08451e+01   7.97804e+00   8.17398e+00  5.50556e-01   1.61999e+00   3.58152e-01
Si    2.56845e+00   5.35766e+00   8.03022e+00  1.29472e+00   4.08128e-01  -1.06507e+00
Si    1.33323e+00   6.87449e+00   6.66995e+00 -2.87060e-01  -1.70973e+00  -2.47305e-01
Si    4.06941e+00   9.43580e+00   6.79679e+00  6.18398e-01   7.69224e-01   1.95423e-01
Si    1.29454e+00   9.62551e+00   9.46359e+00 -1.10518e+00  -1.38708e+00  -7.00994e-01
Si    3.94323e+00   6.73953e+00   9.34999e+00 -3.21341e-02  -2.15661e-01   1.11099e+00
Si    5.47843e+00   5.49944e+00   5.49948e+00 -8.44206e-01   2.37401e-02  -2.22478e+00
Si    8.24471e+00   8.10381e+00   5.41542e+00 -1.90608e+00   8.22164e-01  -5.78357e-01
Si    5.40773e+00   8.10459e+00   8.22243e+00  4.70410e-01   9.85869e-01  -5.79786e-01
Si    8.08480e+00   5.39221e+00   8.37101e+00 -1.17917e-01   9.66971e-01  -2.52540e+00
Si    6.74256e+00   6.83582e+00   6.80898e+00  1.87842e+00  -3.91404e-01   1.28380e+00
Si    9.65304e+00   9.34544e+00   6.70850e+00  2.76949e-01   2.96522e-01   1.99288e-01
Si    6.94252e+00   9.47429e+00   9.51624e+00 -1.41085e-01  -5.64520e-01  -8.76414e-01
Si    9.52769e+00   6.67691e+00   9.61091e+00  1.04264e-01   7.71621e-01   1.21485e-01
