64
Lattice="10.862 0 0 0 10.862 0 0 0 10.862 " PBC="1 1 1" Properties=species:S:1:pos:R:3:force:R:3 Energy="-262.6387"
Si    1.08568e+01  -2.59636e-02   1.08824e+01  4.80714e-01   1.65054e-01  -1.92843e-01
Si    2.52851e+00   2.66608e+00   5.30494e-02  2.18064e+00   9.68710e-01   8.35281e-01
Si    3.09501e-02   2.89887e+00   2.80929e+00 -1.89061e+00  -1.18194e+00  -1.02270e+00
Si    2.80221e+00   1.08978e+01   2.75080e+00 -9.51555e-01  -1.11597e+00  -3.92182e-01
Si    1.28134e+00   1.33384e+00   1.48945e+00 -2.92273e-01   2.56607e-01  -5.58749e-02
Si    4.14929e+00   4.08727e+00   1.47800e+00 -2.49881e+00   2.56038e-01  -2.85506e+00
Si    1.33921e+00   4.15034e+00   4.12058e+00  4.76119e-01  -5.25475e-01   1.72539e+00
Si    4.12046e+00   1.39679e+00   4.06787e+00 -3.18690e-01  -6.46810e-01   8.59763e-01
Si    5.52352e+00   1.59151e-01   1.08454e+01  1.20621e-01  -1.11578e+00   1.35279e+00
Si    8.27007e+00   2.63705e+00   1.08917e+01 -1.14295e+00  -5.07521e-01  -8.76223e-01
Si    5.31628e+00   2.70513e+00   2.69722e+00  2.52014e+00  -1.65462e-01   1.02816e+00
Si    8.33960e+00   6.73410e-02   2.85780e+00 -5.89387e-01  -4.87580e-01  -2.26317e-01
Si    6.90961e+00   1.36657e+00   1.54559e+00 -5.91650e-01   4.56797e-01  -1.30035e+00
Si    9.33797e+00   4.16330e+00   1.35579e+00  2.31321e+00  -9.14647e-01   3.06535e-01
Si    6.64170e+00   4.14697e+00   4.04456e+00  1.78615e-01  -5.95659e-01   4.65650e-01
Si    9.55076e+00   1.52796e+00   4.27828e+00  9.00558e-01  -1.05402e+00  -8.05735e-01
Si    1.08470e+01   5.38827e+00   2.43095e-02 -1.06427e+00  -2.50968e-01  -1.51522e+00
Si    2.77826e+00   8.05888e+00   2.79366e-03  4.90833e-02  -6.69984e-01   1.16435e+00
Si   -8.41561e-03   8.08458e+00   2.65909e+00 -1.19141e+00  -6.11357e-01  -4.29028e-01
Si    2.64610e+00   5.42101e+00   2.74034e+00  1.53169e+00   5.50439e-01   3.76463e-01
Si    1.28020e+00   6.66086e+00   1.33325e+00  1.43461e+00   1.53906e+00   1.18265e-01
Si    4.08186e+00   9.54585e+00   1.28046e+00  8.28414e-01   1.57333e-01   3.67520e-01
Si    1.41184e+00   9.30599e+00   3.95380e+00 -7.15420e-02   2.29601e+00   3.07526e-01
Si    4.11129e+00   6.79924e+00   4.14097e+00 -7.22438e-01  -3.73758e-01  -2.18245e+00
Si    5.57947e+00   5.28744e+00  -4.82062e-02 -3.30276e-01   1.10566e+00   2.62558e-01
Si    8.16032e+00   8.17615e+00   1.08341e+01 -4.06275e-01   4.98210e-01   3.97406e-01
Si    5.42393e+00   8.11543e+00   2.65686e+00 -8.06105e-01   1.66658e+00   1.15908e+00
Si    7.99719e+00   5.46650e+00   2.63114e+00 -2.59031e-01   1.08631e-02   9.41064e-01
Si    6.75281e+00   6.92374e+00   1.34780e+00  4.51414e-01  -1.94102e+00  -1.73192e+00
Si    9.47179e+00   9.52973e+00   1.32169e+00  7.78296e-01  -3.66191e-01   9.83331e-01
Si    6.89639e+00   9.44434e+00   4.01991e+00  1.27970e-01  -1.13097e-01  -3.36865e-01
Si    9.45655e+00   6.63851e+00   3.99794e+00  1.26210e-01   1.21612e+00   2.18554e-02
Si    1.10011e+01   1.07768e+01   5.41338e+00 -8.08861e-01   2.95738e-02  -2.67625e-01
Si    2.70562e+00   2.63197e+00   5.48203e+00 -4.46314e-01   9.91360e-01  -3.40878e+00
Si    5.22253e-02   2.72455e+00   8.09378e+00 -2.92939e-02  -4.86217e-01  -7.66556e-01
Si    2.99083e+00   8.47450e-02   8.03476e+00 -2.57215e+00  -2.78512e+00   4.72318e-01
Si    1.51962e+00   1.30248e+00   6.71000e+00 -2.06712e+00  -4.87622e-01   1.96646e+00
Si    3.77351e+00   4.07957e+00   6.70655e+00  3.07644e+00   2.13978e+00   2.54065e+00
Si    1.40720e+00   4.08367e+00   9.44836e+00 -1.99478e+00  -4.99934e-01   1.39853e+00
Si    3.96930e+00   1.32586e+00   9.61798e+00  1.04701e+00   1.64380e+00   6.55323e-02
Si    5.62238e+00   1.09022e+01   5.28956e+00 -1.91403e+00  -5.75772e-01   4.35871e-01
Si    7.92004e+00   2.66954e+00   5.48553e+00  7.68938e-01   1.90985e+00   7.02932e-01
Si    5.26220e+00   2.72971e+00   8.21409e+00 -1.00574e+00   4.23068e-01  -7.74510e-01
Si    8.15248e+00  -1.51341e-02   8.13230e+00  9.42743e-02   1.11905e+00  -1.62486e+00
Si    6.60078e+00   1.35061e+00   6.91802e+00  1.36168e+00  -3.67368e-01  -3.39847e-01
Si    9.42074e+00   4.16719e+00   6.84824e+00  6.42847e-01  -4.12413e+00  -1.51562e+00
Si    6.91954e+00   3.91769e+00   9.35784e+00 -1.44379e+00  -9.16836e-01   2.67873e+00
Si    9.53903e+00   1.25786e+00   9.37725e+00  9.53165e-01   1.21516e+00   1.38478e+00
Si    1.07072e+01   5.39332e+00   5.49675e+00  1.58610e+00   9.86780e-01  -7.89888e-01
Si    2.64738e+00   8.01985e+00   5.33922e+00  1.30264e-01   5.35553e-01   1.00595e+00
Si    1.08157e+01   8.26411e+00   8.12030e+00  5.07158e-01  -8.31981e-01   1.74250e+00
Si    2.53616e+00   5.57096e+00   8.22747e+00  2.29508e+00   2.78936e-01  -1.25777e+00
Si    1.20979e+00   6.86575e+00   6.78922e+00  8.70245e-02  -6.89336e-01  -2.92630e-01
Si    4.08848e+00   9.46417e+00   6.50013e+00  1.03218e+00   6.24424e-01   1.05591e+00
Si    1.45649e+00   9.42057e+00   9.65400e+00 -1.70478e-01   2.01586e+00  -2.95214e+00
Si    4.23738e+00   6.83139e+00   9.50321e+00 -6.52508e-01  -8.84392e-01  -6.32935e-01
Si    5.41005e+00   5.56421e+00   5.49881e+00 -6.78783e-01  -2.26564e+00   3.81113e-01
Si    8.15761e+00   8.01212e+00   5.40176e+00  8.71164e-01   1.19679e+00  -2.66902e-01
Si    5.49020e+00   8.24263e+00   8.01995e+00  4.91446e-01   6.67312e-01   1.25934e+00
Si    8.20633e+00   5.24895e+00   8.21101e+00 -1.11659e+00   4.51913e+00  -1.52910e-01
Si    6.85482e+00   6.79581e+00   6.80097e+00  1.57663e-01  -1.08674e+00   1.25105e+00
Si    9.47685e+00   9.49458e+00   6.78247e+00 -1.05744e-01   3.00083e-01  -1.41220e+00
Si    6.95538e+00   9.68828e+00   9.54443e+00 -2.58584e+00  -2.20985e+00  -2.67263e-01
Si    9.45572e+00   6.82802e+00   9.50704e+00  1.11856e+00  -8.91804e-01  -3.69435e-01
