64
Lattice="10.862 0 0 0 10.862 0 0 0 10.862 " PBC="1 1 1" Properties=species:S:1:pos:R:3:force:R:3 Energy="-261.18525"
Si    1.07854e+01   4.93259e-03   1.07660e+01  1.67950e+00   7.32940e-01  -3.12441e-01
Si    2.74888e+00   2.69134e+00   3.84860e-02 -1.25878e+00   1.34509e+00  -1.37095e-01
Si   -5.23428e-02   2.67568e+00   2.69480e+00  1.33911e+00  -2.12984e+00   3.69238e-01
Si    2.90238e+00   1.09347e+01   2.82365e+00 -8.25050e-01  -5.80493e-01  -7.48314e-02
Si    1.47040e+00   1.27035e+00   1.34743e+00 -1.51851e+00   1.39826e-01   3.91367e-01
Si    4.03246e+00   4.07763e+00   1.36263e+00  8.17413e-01   9.21793e-01   1.26848e+00
Si    1.29066e+00   3.94103e+00   4.10153e+00 -6.02009e-01   1.57007e+00  -2.68708e-01
Si    3.95274e+00   1.55922e+00   4.26975e+00  5.20326e-02  -1.56861e+00  -3.04096e-01
Si    5.57707e+00   4.01158e-02   1.06984e+01 -4.61221e-01   9.52040e-01  -1.68765e-01
Si    7.96458e+00   2.88543e+00   1.07509e+01  2.18892e+00  -1.20989e+00   2.24936e+00
Si    5.28912e+00   2.58135e+00   2.79795e+00  1.42067e-01   1.25598e+00  -2.34555e+00
Si    8.10722e+00  -9.38342e-02   2.30402e+00  3.17642e-01  -8.84839e-01   2.65622e+00
Si    6.71518e+00   1.40945e+00   1.30713e+00 -2.83133e-02   5.27907e-01  -1.03437e+00
Si    9.52658e+00   4.05233e+00   1.51808e+00 -1.52504e+00  -1.05032e-02  -3.22608e+00
Si    6.70821e+00   3.97508e+00   3.85330e+00  7.95826e-01   6.02676e-01   2.21522e+00
Si    9.38257e+00   1.19221e+00   3.90297e+00 -2.66735e-01   1.06171e+00  -6.83893e-03
Si    1.06936e+01   5.50001e+00   6.75822e-02  1.03674e+00  -4.22097e-02   5.36801e-01
Si    2.80305e+00   8.31563e+00   2.07357e-01 -6.80914e-01   4.20465e-02  -1.52669e+00
Si    1.51004e-01   8.27145e+00   2.76872e+00  1.17274e-01  -2.75119e-01   5.50411e-01
Si    2.67445e+00   5.39571e+00   2.87649e+00 -7.13088e-01   1.49624e-01  -2.35999e+00
Si    1.33409e+00   6.89420e+00   1.36292e+00  7.42438e-01  -1.32469e+00   8.39737e-01
Si    4.34349e+00   9.67785e+00   1.32740e+00 -1.26187e+00  -7.96194e-01   1.49018e+00
Si    1.48997e+00   9.57266e+00   4.31588e+00 -7.95518e-01   5.66081e-01  -1.93532e+00
Si    3.99929e+00   6.89617e+00   4.00273e+00  5.63729e-01  -2.30494e+00   1.69426e+00
Si    5.46565e+00   5.77729e+00   2.47950e-01 -1.59600e+00  -3.04299e+00  -2.67623e+00
Si    8.25112e+00   8.07996e+00   1.07923e+01 -4.95853e-01  -7.34270e-01  -3.51124e-01
Si    5.40843e+00   8.13765e+00   2.80997e+00  7.03873e-01   1.28971e+00  -1.89792e+00
Si    8.21863e+00   5.34830e+00   2.78344e+00 -5.52238e-01   1.57046e+00  -3.29366e-01
Si    6.90836e+00   6.90470e+00   1.50843e+00  1.06487e+00   1.53323e-01   5.03405e-01
Si    9.68130e+00   9.31659e+00   1.18878e+00 -8.91055e-01   1.50060e+00   6.33810e-01
Si    6.68225e+00   9.57939e+00   4.00822e+00  1.71306e+00   5.41464e-01   4.49168e-01
Si    9.70468e+00   6.74825e+00   3.98407e+00 -1.07488e+00   9.25484e-02   1.65568e+00
Si    1.06311e+01   1.08110e+01   5.43175e+00  1.91498e+00   3.79252e-01   6.73162e-01
Si    2.48265e+00   2.74474e+00   5.52684e+00  6.95910e-01  -1.14757e+00   2.08804e+00
Si   -1.10524e-01   2.86520e+00   8.26290e+00  6.59912e-01  -1.26840e+00  -9.69299e-02
Si    2.77274e+00  -1.67960e-02   8.15196e+00  7.64248e-01   1.64211e+00  -4.78189e-01
Si    1.12675e+00   1.33047e+00   7.01071e+00  6.47084e-01  -2.17882e-01  -1.73306e+00
Si    4.17194e+00   3.89605e+00   6.78524e+00 -1.38547e+00   1.73256e+00  -2.04559e+00
Si    1.20611e+00   4.10318e+00   9.67504e+00  1.89096e+00   2.47359e-01  -8.04433e-01
Si    4.12354e+00   1.56898e+00   9.50681e+00 -2.73256e-01  -3.52151e+00  -4.74627e-01
Si    5.37568e+00   1.10347e+01   5.43580e+00  1.29728e+00  -1.10931e+00   8.93446e-01
Si    8.14895e+00   2.76677e+00   5.31921e+00 -4.36063e-01  -1.87425e+00  -1.94620e-01
Si    5.45435e+00   2.60545e+00   8.04833e+00  2.16878e+00   1.57675e+00   1.59231e+00
Si    8.32760e+00  -5.54514e-02   8.06868e+00 -1.54142e-01  -9.07772e-01   9.08600e-01
Si    7.01268e+00   1.30177e+00   6.90491e+00 -1.87959e+00   9.41355e-01  -2.81435e+00
Si    9.44292e+00   3.96539e+00   6.81943e+00  8.87442e-02   2.21844e+00  -9.29169e-01
Si    6.73082e+00   4.22650e+00   9.48140e+00 -2.18814e+00   8.06580e-01  -2.86042e-01
Si    9.40957e+00   1.48520e+00   9.42863e+00 -1.24207e-01  -7.35876e-01   1.48239e+00
Si    1.09310e+01   5.34814e+00   5.52902e+00 -2.14104e+00  -1.14199e+00  -1.88997e+00
Si    2.69756e+00   8.01722e+00   5.48471e+00  4.26100e-01   9.85090e-01   2.81914e-01
Si    1.09825e+01   7.97311e+00   8.10293e+00 -6.72735e-01   1.67126e+00   3.60806e-01
Si    2.71048e+00   5.27615e+00   8.04092e+00 -1.47239e-01   4.63624e-01   2.23154e+00
Si    1.35199e+00   6.63631e+00   6.72745e+00  1.48838e+00   4.93749e-01   1.20260e+00
Si    4.10048e+00   9.45531e+00   6.70647e+00 -5.80546e-02   6.14671e-01   8.67879e-01
Si    1.50088e+00   9.56433e+00   9.47473e+00 -1.77179e+00  -1.59767e+00   8.95483e-01
Si    3.89136e+00   6.88543e+00   9.55648e+00  1.24738e+00  -7.86682e-01  -9.16210e-03
Si    5.45709e+00   5.35908e+00   5.28400e+00 -7.28192e-01   7.90006e-01   1.08342e+00
Si    8.14659e+00   8.10364e+00   5.35283e+00 -1.22353e+00  -9.96300e-01  -1.07554e+00
Si    5.39534e+00   8.17080e+00   8.22794e+00  8.22691e-02  -3.69664e-03  -4.33501e-01
Si    8.14538e+00   5.45075e+00   8.10678e+00 -1.18722e+00  -1.66428e+00  -1.10035e+00
Si    6.74212e+00   6.78850e+00   6.87052e+00 -1.47964e-01  -8.51107e-02  -2.02296e+00
Si    9.45988e+00   9.29966e+00   6.70384e+00  1.51820e+00   4.23779e-01   1.38131e+00
Si    6.95823e+00   9.48737e+00   9.44276e+00 -5.25885e-01   2.51884e-02  -8.35188e-02
Si    9.45878e+00   6.65725e+00   9.33233e+00  1.42688e+00   1.93521e+00   1.98117e+00
