64
Lattice="10.862 0 0 0 10.862 0 0 0 10.862 " PBC="1 1 1" Properties=species:S:1:pos:R:3:force:R:3 Energy="-262.93934"
Si    1.08131e+01  -3.46455e-02   1.07119e+01  1.01194e+00  -2.46051e-01   1.88490e+00
Si    2.65905e+00   2.70157e+00   5.02660e-02 -1.59040e-01   3.68547e-01   1.35000e+00
Si   -3.95743e-02   2.66723e+00   2.67556e+00  6.17483e-01   1.49875e+00   2.42298e+00
Si    2.67149e+00   1.09367e+01   2.92174e+00  2.33041e-01   4.39748e-01  -8.65728e-01
Si    1.28847e+00   1.37474e+00   1.51991e+00  7.24514e-01  -1.66456e+00  -2.92779e+00
Si    4.04234e+00   4.00790e+00   1.49636e+00 -7.83570e-01   1.88120e+00  -1.74534e+00
Si    1.37833e+00   4.12835e+00   4.10470e+00 -1.06413e+00  -1.00832e+00  -3.54480e-01
Si    4.25225e+00   1.49292e+00   4.04170e+00  1.94483e-01  -1.69884e+00   3.55189e-02
Si    5.44077e+00   1.60554e-01   1.10025e+01 -1.24726e+00  -2.77877e+00  -2.08887e+00
Si    8.21130e+00   2.59665e+00   1.07107e+01  3.52472e-01  -3.11394e-01   6.07657e-01
Si    5.54264e+00   2.84055e+00   2.60730e+00  8.21967e-01  -2.11827e+00   8.59677e-01
Si    8.09113e+00   2.46589e-02   2.88894e+00  1.49522e+00   6.03551e-01  -1.73927e+00
Si    6.84306e+00   1.28078e+00   1.36225e+00  1.28864e+00   2.42957e+00   7.55932e-01
Si    9.51358e+00   3.98671e+00   1.39994e+00  2.76102e-01   1.23774e+00  -2.43033e+00
Si    6.94561e+00   4.06956e+00   3.93253e+00 -1.76275e-01   1.12298e+00   1.15365e+00
Si    9.62083e+00   1.30094e+00   4.08942e+00 -1.06785e+00   6.04181e-01   5.73763e-01
Si    1.10276e+01   5.45789e+00  -1.98241e-02 -1.49247e+00  -2.95638e-01   7.95818e-01
Si    2.72665e+00   8.14723e+00   4.49212e-02  4.74910e-01   6.79267e-01  -7.33709e-01
Si   -1.55382e-02   7.97778e+00   2.68491e+00 -1.05765e+00   2.26597e+00   4.64474e-01
Si    2.67366e+00   5.51390e+00   2.82464e+00  1.00708e+00  -1.09491e+00  -1.22649e+00
Si    1.45791e+00   6.83552e+00   1.39091e+00 -7.67182e-01  -1.07561e+00  -3.70167e-01
Si    3.92683e+00   9.67731e+00   1.41309e+00  1.18973e+00  -7.65757e-01   6.71562e-02
Si    1.31727e+00   9.40833e+00   4.03895e+00 -7.29788e-01   5.54042e-01   1.25778e+00
Si    4.12923e+00   6.76812e+00   4.03531e+00  5.16296e-01   2.41510e-01   9.66623e-01
Si    5.61351e+00   5.25607e+00   7.53778e-02 -2.20960e+00  -3.48425e-01  -2.61428e-01
Si    8.07447e+00   8.26637e+00   1.08228e+01  6.11871e-01  -4.35153e-01   1.07128e-02
Si    5.38293e+00   8.23849e+00   2.70117e+00  5.40527e-01  -2.58514e-01  -9.57679e-01
Si    8.27605e+00   5.54277e+00   2.66633e+00 -1.11496e+00  -7.41561e-01  -5.32971e-01
Si    6.79494e+00   6.78317e+00   1.23817e+00  4.24680e-01   1.25584e+00   1.98703e+00
Si    9.41432e+00   9.56199e+00   1.45141e+00  9.23864e-01  -6.23424e-01  -7.83735e-01
Si    6.79195e+00   9.58308e+00   4.08110e+00 -1.44637e+00  -2.05346e+00   1.14261e-01
Si    9.42741e+00   6.81975e+00   4.17437e+00  6.40908e-01  -1.48208e-01  -3.37268e-01
Si    1.07983e+01   1.08281e+01   5.56051e+00  1.35951e+00  -4.32482e-01  -1.96104e+00
Si    2.81056e+00   2.68872e+00   5.31075e+00 -1.08652e+00   7.93405e-01   1.80921e-01
Si    6.16353e-02   2.81720e+00   8.11156e+00  4.80215e-01  -1.44716e+00  -4.82489e-01
Si    2.75401e+00   3.03320e-02   8.06433e+00 -2.40608e-01   9.32443e-01   1.12475e+00
Si    1.43813e+00   1.40639e+00   6.65066e+00 -7.51476e-01  -9.59203e-02   1.43916e+00
Si    3.99919e+00   3.96413e+00   6.77233e+00  1.01919e+00   1.53882e+00  -7.07782e-01
Si    1.48927e+00   4.10682e+00   9.47806e+00 -3.56066e-01   2.02855e-01  -2.78569e-01
Si    4.02687e+00   1.41627e+00   9.64565e+00 -3.93346e-02  -1.04849e+00  -1.47090e+00
Si    5.52656e+00   1.08235e+01   5.45732e+00 -1.81102e+00   9.74691e-01  -2.89554e-01
Si    8.28076e+00   2.77900e+00   5.38613e+00 -1.22533e+00  -1.23051e+00  -3.26904e-01
Si    5.27117e+00   2.66586e+00   8.12034e+00  1.68855e+00  -7.15979e-03   4.20121e-01
Si    8.02621e+00  -8.16293e-02   8.18931e+00 -3.85181e-01   1.16702e+00  -3.26764e+00
Si    6.74391e+00   1.43710e+00   6.68937e+00  1.15285e+00  -2.70893e-01   1.47401e+00
Si    9.40786e+00   4.05624e+00   6.89145e+00  2.35882e+00   1.01552e+00  -1.44331e+00
Si    6.81590e+00   3.98774e+00   9.41125e+00 -2.96368e-02  -4.54102e-01   2.30659e-01
Si    9.54962e+00   1.18415e+00   9.21745e+00  3.17846e-01   2.17973e+00   1.98616e+00
Si    1.08537e+01   5.47912e+00   5.46145e+00 -5.89013e-01  -5.02724e-01   1.13181e+00
Si    2.75980e+00   8.12238e+00   5.36689e+00 -4.98605e-01   2.64752e-01   7.79668e-01
Si    1.08599e+01   8.17285e+00   7.99418e+00 -2.39333e+00   2.10981e+00   1.81748e+00
Si    2.86548e+00   5.48625e+00   8.11927e+00 -2.00738e+00  -1.33706e-01  -2.66064e-01
Si    1.29242e+00   6.92642e+00   6.84274e+00  2.78950e+00  -2.80758e+00  -1.97693e+00
Si    4.04720e+00   9.51432e+00   6.80216e+00  3.91900e-01  -6.21501e-01  -9.55733e-01
Si    1.42364e+00   9.46426e+00   9.37202e+00 -5.33915e-01   1.44330e-01   6.73966e-01
Si    4.09045e+00   6.60548e+00   9.68537e+00 -1.18337e-01   4.37816e-01   8.25032e-01
Si    5.47977e+00   5.33255e+00   5.41105e+00 -5.92905e-03  -6.44360e-02   1.35372e-01
Si    7.86065e+00   8.03782e+00   5.41597e+00  1.73824e+00   9.79155e-01   2.68867e-01
Si    5.13410e+00   7.99603e+00   8.23621e+00  2.63642e+00   1.18861e+00  -5.09764e-01
Si    8.23254e+00   5.42132e+00   8.22257e+00 -1.14067e+00   1.05916e+00   5.39870e-01
Si    6.72662e+00   6.73170e+00   6.93437e+00 -1.04868e+00  -6.21166e-01  -1.23227e-01
Si    9.27171e+00   9.52287e+00   6.66198e+00  3.79005e-01  -1.54053e+00   1.34871e+00
Si    6.68097e+00   9.52575e+00   9.42275e+00 -2.13310e+00  -7.12637e-01   1.92961e+00
Si    9.57453e+00   6.89701e+00   9.54565e+00  5.25366e-02  -5.13138e-01  -1.98947e-01
