64
Lattice="10.862 0 0 0 10.862 0 0 0 10.862 " PBC="1 1 1" Properties=species:S:1:pos:R:3:force:R:3 Energy="-263.22093"
Si    1.05998e+01  -1.48675e-02   1.09384e+01  1.76528e+00   7.28943e-01  -7.38374e-01
Si    2.61972e+00   2.77417e+00  -5.39505e-03  3.73712e-01  -1.42598e+00   2.58274e-01
Si    5.98736e-02   2.61411e+00   2.75306e+00  8.83743e-02   1.88264e+00   5.10443e-01
Si    2.55419e+00   1.08072e+01   2.66686e+00  2.47139e+00  -1.60978e-01  -7.78092e-01
Si    1.23714e+00   1.27037e+00   1.30676e+00  5.68229e-01   7.03081e-01  -2.60473e-01
Si    4.14668e+00   4.09154e+00   1.27891e+00 -4.62557e-01  -4.53817e-01   3.22819e-01
Si    1.36608e+00   4.11078e+00   4.21820e+00  5.60503e-01  -1.86547e+00  -2.56317e+00
Si    4.07025e+00   1.30540e+00   3.97287e+00 -8.26121e-02  -3.83656e-01   6.08059e-01
Si    5.52866e+00  -5.12551e-02   1.09298e+01  1.19908e+00  -2.62963e-01  -9.26450e-01
Si    8.13867e+00   2.87451e+00   1.07615e+01  9.05841e-01  -1.68399e+00   3.25207e+00
Si    5.45906e+00   2.76800e+00   2.78120e+00 -1.37705e+00  -9.93155e-01  -1.85057e+00
Si    8.11178e+00   4.31675e-03   2.84318e+00  4.98929e-01   7.18052e-01  -8.59084e-01
Si    6.81393e+00   1.45575e+00   1.34984e+00  6.80112e-01  -4.47618e-01   4.61687e-01
Si    9.44136e+00   4.02933e+00   1.56779e+00 -9.69106e-01   6.37159e-01  -4.59606e-01
Si    6.55973e+00   4.07917e+00   4.18159e+00  1.75659e+00   1.54376e+00   9.24203e-03
Si    9.53414e+00   1.46040e+00   4.10926e+00 -1.22231e+00  -1.04089e+00   6.87513e-01
Si    1.07363e+01   5.27713e+00   7.06718e-02 -4.69262e-01  -8.50721e-02  -1.84752e+00
Si    2.79113e+00   8.22699e+00   6.30688e-02 -9.57229e-01  -8.52570e-01  -1.77191e+00
Si    4.18069e-02   7.92004e+00   2.67203e+00  9.79936e-01   1.41510e+00  -1.38714e+00
Si    2.61753e+00   5.29182e+00   2.59600e+00  1.58532e+00   1.30039e+00   1.11694e+00
Si    1.38362e+00   6.60631e+00   1.10496e+00  7.31767e-02   1.37245e+00   2.09212e+00
Si    4.20114e+00   9.45526e+00   1.33890e+00 -1.21646e+00   1.33571e+00   1.89580e+00
Si    1.33604e+00   9.42749e+00   4.00439e+00 -1.43402e+00   3.98182e-01  -2.39815e-01
Si    4.14958e+00   6.72494e+00   4.06364e+00 -1.48332e+00   5.71100e-02  -8.73998e-01
Si    5.51409e+00   5.43791e+00  -9.47475e-02 -2.88541e-01   1.96792e-01   8.01415e-01
Si    8.35940e+00   8.17409e+00   1.08828e+01 -2.67799e+00  -4.28162e-01  -2.36960e-01
Si    5.50386e+00   8.26942e+00   2.84842e+00 -5.51419e-01  -1.79346e+00  -9.48334e-01
Si    7.91041e+00   5.53862e+00   2.82547e+00  8.23142e-01  -1.80942e+00  -5.50057e-01
Si    6.74302e+00   6.88718e+00   1.34653e+00  6.47734e-01   4.53070e-01  -4.12963e-01
Si    9.51331e+00   9.46723e+00   1.48788e+00 -2.25705e-01  -2.16208e-01   1.07995e+00
Si    6.84066e+00   9.48343e+00   4.21464e+00  1.11268e+00   2.48461e-01   6.93056e-02
Si    9.52535e+00   6.72595e+00   3.95866e+00 -6.82526e-01   6.83808e-02   1.23289e+00
Si    1.09657e+01   1.09530e+01   5.40342e+00  1.02880e+00   4.26032e-01   2.41334e-01
Si    2.84912e+00   2.74969e+00   5.40182e+00  2.17970e-01   7.06478e-01   1.21496e+00
Si   -7.06005e-02   2.67865e+00   7.98661e+00 -5.48616e-01   7.78128e-02   1.14146e+00
Si    2.75595e+00  -4.39851e-02   8.09331e+00  2.97230e-01   1.97748e-01   1.21842e+00
Si    1.50596e+00   1.49956e+00   6.88309e+00 -2.30799e-01  -1.52125e+00  -2.06292e+00
Si    4.13854e+00   4.23856e+00   6.90949e+00 -7.62157e-01  -3.08440e+00   5.06679e-02
Si    1.16137e+00   3.93292e+00   9.42670e+00  1.67027e+00   2.26744e+00   1.10614e-01
Si    4.08760e+00   1.25395e+00   9.70316e+00 -1.15704e+00   3.23143e-01  -1.52394e+00
Si    5.44291e+00   1.08050e+01   5.44136e+00 -1.15819e-02   1.88250e+00  -1.34817e+00
Si    8.02431e+00   2.82746e+00   5.41466e+00 -3.81504e-01  -2.21835e+00   9.64807e-03
Si    5.35613e+00   2.59594e+00   8.24732e+00 -8.52759e-01   1.00986e+00  -2.00251e-01
Si    8.28365e+00   9.47774e-02   8.22337e+00 -7.57899e-01   2.75102e-01  -1.95684e+00
Si    6.64368e+00   1.37832e+00   6.82588e+00  2.34660e+00  -6.09224e-01  -1.11918e-01
Si    9.39171e+00   4.00607e+00   6.73065e+00  6.75474e-01   2.34051e+00   2.96055e-01
Si    6.75512e+00   3.92322e+00   9.49404e+00 -9.58125e-01   2.50330e+00  -1.38042e+00
Si    9.49885e+00   1.51933e+00   9.56282e+00  2.70056e-01  -7.83234e-01  -6.22422e-01
Si    1.08251e+01   5.41544e+00   5.32527e+00 -1.13841e+00   3.28934e-02   2.11333e+00
Si    2.66796e+00   8.15642e+00   5.27159e+00  7.10654e-01  -1.36283e+00   1.10644e+00
Si    1.07869e+01   8.00175e+00   8.18442e+00  1.75025e+00   2.15844e+00   2.62857e-01
Si    2.76343e+00   5.52160e+00   8.16076e+00 -2.12284e+00  -9.35686e-02   9.44666e-01
Si    1.27355e+00   6.80437e+00   6.71420e+00  1.13805e+00  -3.76753e-01   5.72965e-02
Si    4.07006e+00   9.51316e+00   6.55485e+00 -9.73866e-01  -8.75373e-01   2.23318e+00
Si    1.27473e+00   9.63384e+00   9.60487e+00  1.43008e-01  -1.85666e+00  -9.28820e-01
Si    4.18540e+00   6.88230e+00   9.50862e+00 -1.08639e-01   7.85614e-01  -1.15331e+00
Si    5.40397e+00   5.46969e+00   5.59064e+00 -1.76546e-01   3.01452e-01  -1.99539e+00
Si    8.40226e+00   8.17004e+00   5.44044e+00 -9.11849e-01  -1.95189e-03   1.85913e-01
Si    5.56506e+00   8.25098e+00   7.92307e+00 -9.86141e-01  -7.82795e-01   1.12125e+00
Si    8.02562e+00   5.41890e+00   8.16354e+00  5.88915e-01  -1.03029e+00  -6.13150e-01
Si    6.85480e+00   6.76241e+00   6.66987e+00  1.15934e+00   1.44280e+00   8.86775e-01
Si    9.74397e+00   9.62033e+00   6.82771e+00 -1.67995e+00  -5.62831e-01   3.31094e-01
Si    6.96586e+00   9.48061e+00   9.38449e+00 -6.57080e-01   3.12145e-01   1.71436e+00
Si    9.44003e+00   6.71204e+00   9.48130e+00  4.29259e-01  -1.03964e+00   9.63227e-01
