64
Lattice="10.862 0 0 0 10.862 0 0 0 10.862 " PBC="1 1 1" Properties=species:S:1:pos:R:3:force:R:3 Energy="-263.29003"
Si    1.06277e+01   8.06265e-02   1.08573e+01  8.24287e-01   5.87318e-01  -9.37768e-01
Si    2.82669e+00   2.45419e+00   3.32216e-02 -7.89841e-01   2.31653e+00  -1.18521e+00
Si    4.73136e-02   2.66962e+00   2.66813e+00  5.89372e-01   1.51444e-01  -4.28159e-01
Si    2.82830e+00   1.07332e+01   2.60539e+00 -5.13456e-01   1.56195e+00   1.39154e+00
Si    1.39218e+00   1.22920e+00   1.26039e+00 -8.34430e-01  -3.11944e-01   1.61113e+00
Si    4.13814e+00   3.92781e+00   1.30948e+00 -7.19135e-01   7.32363e-02   1.15240e+00
Si    1.29048e+00   4.10223e+00   4.06374e+00  2.57789e-01  -2.04668e+00   1.03160e+00
Si    4.13308e+00   1.37902e+00   4.13978e+00 -9.75391e-01   3.40247e-02  -1.54207e+00
Si    5.54262e+00  -1.04391e-01   1.08808e+01 -7.25867e-01   6.13224e-01  -9.35223e-01
Si    8.03969e+00   2.68868e+00   1.10080e+01  7.12101e-01   1.51567e-01  -7.86264e-02
Si    5.55177e+00   2.65875e+00   2.77557e+00 -1.54896e+00   4.20777e-01  -2.58543e-01
Si    8.11154e+00  -1.29528e-01   2.68968e+00  1.44379e+00   1.01059e+00   9.98916e-01
Si    6.75113e+00   1.24559e+00   1.44761e+00  8.06036e-01   1.04372e-01  -4.34917e-01
Si    9.58923e+00   4.07455e+00   1.29027e+00 -1.27307e+00   3.98892e-02   1.31446e+00
Si    6.74529e+00   4.16217e+00   4.04528e+00 -2.79095e-01   8.63648e-01  -1.37312e-01
Si    9.64718e+00   1.40372e+00   4.13001e+00 -3.72441e+00   5.93298e-01  -4.76289e-01
Si    1.09163e+01   5.48580e+00   3.17829e-02 -2.80907e-01  -3.09769e-01  -4.67342e-01
Si    2.69191e+00   8.37158e+00   1.42090e-02 -1.31651e+00  -3.06064e+00  -1.10152e+00
Si   -9.09023e-02   8.16525e+00   2.56178e+00  1.78815e-01   8.42639e-01   1.63625e+00
Si    2.60214e+00   5.23449e+00   2.70141e+00  1.29627e+00   1.68080e+00  -1.72053e+00
Si    1.30402e+00   6.82417e+00   1.42431e+00  1.84569e+00  -1.05150e-01  -1.23763e+00
Si    4.16692e+00   9.46059e+00   1.27883e+00  2.20848e-01   4.89941e-01   7.17207e-01
Si    1.37742e+00   9.46148e+00   3.99721e+00 -5.41991e-01   3.51326e-01   8.48629e-02
Si    3.87660e+00   6.75703e+00   3.96362e+00  1.96973e+00  -1.17144e+00   1.47194e-01
Si    5.28338e+00   5.44445e+00  -4.63440e-02  1.53514e+00  -8.72596e-01   1.15270e-01
Si    8.10881e+00   8.04016e+00   1.08548e+01 -2.21596e+00   8.99576e-01  -1.62516e-01
Si    5.31173e+00   8.20434e+00   2.80449e+00  1.26105e-01  -1.99603e+00  -1.60498e+00
Si    8.10952e+00   5.46454e+00   2.67527e+00  1.04869e+00  -1.24935e-01  -2.14468e-02
Si    6.70348e+00   6.80436e+00   1.38436e+00 -9.24669e-01  -7.15782e-02  -1.38152e-01
Si    9.37900e+00   9.42756e+00   1.19457e+00  3.75625e-01   8.28405e-01   1.42844e+00
Si    6.72700e+00   9.42661e+00   4.01862e+00  1.24960e+00   9.17693e-01   2.03077e+00
Si    9.49598e+00   6.88451e+00   4.04263e+00  3.10646e-01  -1.64127e+00  -1.02012e-01
Si    1.09329e+01   1.09728e+01   5.45211e+00  1.51182e+00  -1.31775e+00   7.08425e-01
Si    2.82552e+00   2.83577e+00   5.47234e+00 -1.73229e+00  -1.04821e+00  -2.38527e+00
Si    1.11385e-01   2.82191e+00   8.17846e+00 -1.74405e+00   4.14974e-01  -6.58175e-01
Si    2.86339e+00   1.47009e-02   8.09146e+00 -3.50699e+00   1.42503e-01   1.81206e-02
Si    1.47749e+00   1.54714e+00   6.82037e+00 -2.73423e-02  -1.73806e+00  -4.27157e-02
Si    4.11550e+00   4.09537e+00   6.66446e+00  1.86531e+00   2.59727e-01   2.52674e+00
Si    1.39431e+00   4.04841e+00   9.58679e+00  1.36005e+00  -1.90900e-01   4.58783e-01
Si    4.09093e+00   1.18957e+00   9.47956e+00  2.36063e+00   7.74859e-01   7.85474e-01
Si    5.56268e+00   1.10109e+01   5.38070e+00  5.33156e-01  -1.28420e+00   1.22637e+00
Si    8.00771e+00   3.02876e+00   5.52118e+00  2.21808e+00  -3.25524e+00  -7.76480e-01
Si    5.48311e+00   2.60617e+00   8.15635e+00 -1.60714e+00   4.78350e-01  -6.24762e-01
Si    8.37180e+00  -2.21476e-02   8.25713e+00 -1.63583e+00  -1.20244e-01  -6.33153e-01
Si    6.97817e+00   1.40949e+00   6.90167e+00 -3.68702e-01  -8.46677e-01  -1.03518e+00
Si    9.41555e+00   4.19685e+00   6.85740e+00  1.48974e+00  -1.33140e-01   1.10244e+00
Si    6.73443e+00   3.87202e+00   9.56474e+00 -1.07786e+00   1.79424e+00   1.32866e+00
Si    9.42514e+00   1.63209e+00   9.48269e+00  9.02759e-01  -1.45779e+00   7.37847e-01
Si    1.08531e+01   5.39657e+00   5.44364e+00 -1.04067e+00   1.63458e+00  -4.49899e-01
Si    2.73407e+00   8.04507e+00   5.34794e+00 -7.86294e-01   2.55736e+00   8.81388e-01
Si    1.08646e+01   8.10733e+00   8.25325e+00  1.24963e-01  -2.15677e-01  -1.14525e-01
Si    2.65918e+00   5.31725e+00   8.01483e+00 -6.27143e-01   5.16478e-01   1.38752e-01
Si    1.32477e+00   6.84817e+00   6.70911e+00  7.84090e-03  -1.15478e+00   1.18724e+00
Si    4.06725e+00   9.64961e+00   6.67312e+00  3.21711e-01  -1.07527e+00  -1.79918e+00
Si    1.22564e+00   9.68663e+00   9.51831e+00  1.20327e+00  -4.02791e-01  -5.64898e-01
Si    3.89550e+00   6.66963e+00   9.41358e+00  2.73403e-01   2.70078e+00   3.04500e-01
Si    5.41869e+00   5.54641e+00   5.40524e+00  2.77862e-01   4.26225e-01  -1.31319e-01
Si    8.21444e+00   8.14552e+00   5.47026e+00 -5.30600e-01   7.02582e-01   1.19209e-01
Si    5.23945e+00   8.28818e+00   8.06202e+00  1.57979e+00  -2.76641e+00   4.95735e-01
Si    8.12890e+00   5.31479e+00   8.47968e+00 -1.41403e-01   5.39154e-01  -2.32170e+00
Si    6.97720e+00   6.74769e+00   6.92210e+00 -2.37754e+00   5.42650e-01  -5.31107e-02
Si    9.65299e+00   9.46646e+00   6.83938e+00 -4.55560e-01   7.92383e-01  -6.79122e-01
Si    6.76406e+00   9.42856e+00   9.43080e+00  1.19353e+00   3.33226e-01   2.76427e-01
Si    9.41150e+00   6.76907e+00   9.63365e+00  2.30867e+00  -4.23152e-01  -7.16432e-01
