64
Lattice="10.862 0 0 0 10.862 0 0 0 10.862 " PBC="1 1 1" Properties=species:S:1:pos:R:3:force:R:3 Energy="-262.84478"
Si    1.10270e+01  -5.63250e-03   1.09595e+01 -2.30791e+00  -7.00485e-01  -1.55102e+00
Si    2.62789e+00   2.69592e+00  -2.33244e-01  7.94323e-01  -4.40165e-01   8.66042e-01
Si    1.51874e-01   2.67064e+00   2.62454e+00 -1.76814e+00  -5.07767e-01  -2.97992e-01
Si    2.82466e+00   1.07173e+01   2.81653e+00  4.90104e-01   1.65888e+00  -1.81029e+00
Si    1.54063e+00   1.28424e+00   1.31048e+00  5.23146e-01   4.15015e-01   1.04377e+00
Si    3.89407e+00   4.03896e+00   1.24064e+00  8.11641e-01   1.12765e+00  -4.00248e-01
Si    1.24502e+00   4.04882e+00   4.02392e+00 -5.49303e-01   2.08247e+00   1.24282e+00
Si    4.08486e+00   1.50612e+00   4.04333e+00 -3.37403e-01  -5.29433e-01  -7.85341e-02
Si    5.49514e+00   5.79521e-03   1.10236e+01 -9.81634e-01  -7.33645e-01  -1.11344e+00
Si    8.07485e+00   2.61346e+00   1.11304e+01  1.43848e+00  -3.40335e-01  -1.95032e+00
Si    5.38706e+00   3.00555e+00   2.69334e+00 -4.88224e-01  -2.81108e+00  -3.65355e-02
Si    8.25918e+00   5.27310e-02   2.75141e+00 -1.28811e+00  -1.13878e+00   1.26665e+00
Si    6.69672e+00   1.33667e+00   1.60544e+00  1.87744e-01   6.82644e-01  -2.03048e-01
Si    9.52431e+00   4.07892e+00   1.32277e+00  5.32994e-01  -6.05608e-01   1.10837e+00
Si    6.75525e+00   4.04411e+00   4.15387e+00  1.61261e+00   1.56617e+00  -2.72822e-01
Si    9.58102e+00   1.38866e+00   4.11066e+00  1.57590e+00  -8.46784e-01  -1.02196e+00
Si    1.07768e+01   5.36235e+00  -1.60263e-01 -3.62850e-01   1.53164e+00   9.03343e-01
Si    2.59517e+00   8.17472e+00  -8.72803e-02  4.53578e-01  -4.50500e-01   4.00422e-01
Si   -1.42946e-01   8.05892e+00   2.67642e+00  2.11168e+00   5.10569e-01   1.01310e+00
Si    2.60661e+00   5.36335e+00   2.72410e+00 -3.75999e-01   7.67991e-01  -1.66154e+00
Si    1.24463e+00   6.78301e+00   1.27571e+00  1.37454e-01  -9.44275e-01   1.14190e-02
Si    4.08975e+00   9.33908e+00   1.31307e+00 -9.56394e-01   1.91380e+00  -4.11491e-01
Si    1.29326e+00   9.53808e+00   3.97845e+00 -1.10734e+00  -1.35475e+00   9.82789e-01
Si    3.99466e+00   6.75962e+00   3.93951e+00 -6.40231e-01   1.23467e+00  -1.05262e+00
Si    5.52552e+00   5.34922e+00  -3.04689e-02 -6.98389e-01   2.47473e-01   1.32428e+00
Si    8.03382e+00   8.11174e+00   1.09446e+01  1.76576e+00  -2.26605e-01  -6.40351e-01
Si    5.40466e+00   8.10837e+00   2.60726e+00  1.13199e+00  -1.22889e+00   1.86406e+00
Si    8.27464e+00   5.42539e+00   2.81465e+00 -3.06605e-01  -8.73172e-01   1.15604e+00
Si    6.87734e+00   6.64115e+00   1.51886e+00 -1.33360e+00   6.79061e-01  -1.80484e+00
Si    9.54102e+00   9.46957e+00   1.44683e+00 -9.59723e-01   9.16728e-01  -2.11072e+00
Si    6.75645e+00   9.44445e+00   4.10044e+00 -4.26134e-01   1.98283e+00  -6.55437e-01
Si    9.47154e+00   6.92592e+00   4.21945e+00 -9.06618e-01  -3.44998e-01   7.60357e-01
Si    1.08011e+01   1.07709e+01   5.53278e+00  1.59514e+00   1.83611e+00  -8.59447e-01
Si    2.60540e+00   2.81718e+00   5.31490e+00  2.29730e+00   2.88540e-01   7.61199e-01
Si    1.05163e-01   2.72657e+00   8.10635e+00 -1.88246e+00  -1.69222e+00   7.84858e-02
Si    2.81321e+00  -6.98540e-02   8.09600e+00  4.46067e-01   1.12312e+00  -1.03998e+00
Si    1.47511e+00   1.48914e+00   6.70844e+00 -1.02703e+00  -2.85539e+00   8.81997e-01
Si    4.06560e+00   4.11591e+00   6.80734e+00  7.39504e-03  -3.40201e-01  -1.30933e+00
Si    1.22003e+00   4.09733e+00   9.39220e+00  2.09991e+00   6.56740e-02   5.68536e-01
Si    4.19436e+00   1.29791e+00   9.48542e+00 -1.52399e-01   4.62693e-01  -4.01392e-01
Si    5.32956e+00   1.09213e+01   5.47133e+00  2.58806e+00   9.70105e-01  -1.65045e+00
Si    8.35526e+00   2.72720e+00   5.39023e+00 -2.55016e+00   2.74998e-01   1.06837e+00
Si    5.55890e+00   2.72187e+00   8.05839e+00 -8.69246e-01   6.39936e-01   1.73698e+00
Si    8.11038e+00   3.77295e-02   8.23858e+00 -6.30164e-01  -5.17410e-01  -5.37585e-01
Si    6.84585e+00   1.39977e+00   6.76747e+00  7.95202e-01  -7.27504e-01  -1.03205e+00
Si    9.55419e+00   4.01928e+00   6.86982e+00 -2.68860e-01   1.59862e+00  -7.24997e-01
Si    6.96661e+00   3.98462e+00   9.60693e+00 -1.75691e+00  -1.31375e-01  -1.08834e+00
Si    9.48344e+00   1.32903e+00   9.50344e+00  1.35853e+00   9.35423e-01   1.90646e+00
Si    1.08442e+01   5.58765e+00   5.59281e+00  5.84170e-01  -1.47002e+00  -9.81978e-01
Si    2.73434e+00   8.18912e+00   5.26578e+00  2.58538e-01   8.48212e-02   1.49938e+00
Si    1.07409e+01   8.18111e+00   8.05753e+00  2.46052e+00  -7.12806e-01   1.12117e+00
Si    2.75510e+00   5.39958e+00   8.22491e+00  1.00373e-01   8.93551e-01   1.41657e-02
Si    1.50864e+00   6.86206e+00   6.87318e+00 -8.08662e-01   4.58008e-01  -7.58006e-01
Si    4.27070e+00   9.45320e+00   6.72299e+00 -3.00150e+00  -9.82445e-01   7.79880e-01
Si    1.33358e+00   9.56039e+00   9.36026e+00 -4.55932e-01  -6.35468e-01   7.31213e-01
Si    4.11056e+00   6.81120e+00   9.60355e+00 -5.18638e-01  -1.00906e+00  -4.47610e-01
Si    5.26192e+00   5.51580e+00   5.22848e+00  2.20802e+00  -9.88774e-01   3.21377e+00
Si    8.04786e+00   8.34652e+00   5.65540e+00  8.39970e-01  -1.74698e+00  -1.86474e+00
Si    5.43301e+00   8.06840e+00   8.20703e+00  4.05928e-01   3.80406e-01  -6.25931e-01
Si    7.98073e+00   5.40576e+00   8.03127e+00  2.55416e+00  -8.00189e-01   1.32776e+00
Si    6.78260e+00   6.80509e+00   6.76499e+00 -2.37804e+00  -2.34547e-01  -9.52608e-01
Si    9.46795e+00   9.54986e+00   6.92554e+00 -9.81097e-01   1.22217e+00  -5.12727e-01
Si    6.72221e+00   9.47118e+00   9.52640e+00  5.11967e-01   5.68778e-01   8.15846e-01
Si    9.45605e+00   6.78902e+00   9.34232e+00 -1.60296e+00  -1.98905e-01   1.41170e+00
