64
Lattice="10.862 0 0 0 10.862 0 0 0 10.862 " PBC="1 1 1" Properties=species:S:1:pos:R:3:force:R:3 Energy="-263.67865"
Si    1.09209e+01   8.31053e-02   1.08306e+01 -3.11697e-01  -1.33064e+00  -3.56086e-01
Si    2.46207e+00   2.59794e+00   1.64970e-02  1.25362e+00   6.35742e-01   1.68288e+00
Si   -2.24029e-01   2.67782e+00   2.82215e+00 -7.05392e-01   9.87194e-01   9.93958e-01
Si    2.66700e+00   1.09719e+01   2.75659e+00  5.32389e-03   4.24797e-01  -5.58103e-01
Si    1.12212e+00   1.44755e+00   1.59969e+00  1.60669e+00  -1.35506e+00  -2.17648e+00
Si    3.98808e+00   4.08653e+00   1.19466e+00 -1.35226e+00  -2.98545e-01   7.59425e-01
Si    1.35551e+00   3.97251e+00   3.95708e+00 -8.15965e-02   1.56909e+00   9.75357e-01
Si    4.14189e+00   1.42189e+00   3.99230e+00  5.00753e-01  -2.99832e-01   1.15592e+00
Si    5.41795e+00   3.57644e-02   1.09474e+01  4.56392e-01   2.18150e-01  -4.66612e-01
Si    8.21809e+00   2.63795e+00   1.07506e+01 -8.40135e-01  -4.80456e-01   6.68629e-01
Si    5.40900e+00   2.82557e+00   2.50357e+00 -1.62940e-01  -1.80504e+00   6.43095e-01
Si    8.26216e+00  -6.69428e-02   2.93381e+00 -2.47497e-01   1.52101e+00  -1.39814e+00
Si    6.86779e+00   1.26881e+00   1.43624e+00  6.10756e-01   9.05355e-01  -3.52664e-01
Si    9.35446e+00   4.07488e+00   1.39473e+00  1.65556e+00  -2.48635e-01  -8.91450e-01
Si    6.65178e+00   4.02429e+00   3.97280e+00  7.16020e-01   1.93535e+00   4.65089e-01
Si    9.51352e+00   1.28653e+00   4.38094e+00 -1.27098e-01   4.10728e-01  -1.58989e+00
Si    1.09093e+01   5.43832e+00   5.91066e-02 -1.51043e+00  -2.17414e-01  -4.44903e-01
Si    2.91897e+00   8.16862e+00   3.47800e-02 -1.22658e+00   2.52301e-01  -1.51279e+00
Si   -4.27168e-02   7.90291e+00   2.66259e+00  8.33699e-01   2.13766e+00  -1.32327e+00
Si    2.65459e+00   5.48412e+00   2.61050e+00  9.40153e-01  -1.72835e+00   4.27732e-01
Si    1.50756e+00   6.76613e+00   1.18247e+00 -1.46521e+00   8.76634e-01   1.36770e+00
Si    4.00234e+00   9.66909e+00   1.39025e+00  1.37524e+00  -1.22751e+00   6.49130e-01
Si    1.40062e+00   9.44316e+00   3.85616e+00 -6.75270e-01  -1.16766e+00   2.35303e+00
Si    4.05586e+00   6.78638e+00   3.95229e+00  6.83592e-01   3.35685e-01   4.24362e-01
Si    5.35080e+00   5.49367e+00   4.21564e-02  1.38622e+00  -3.75639e-01  -1.47164e+00
Si    8.17291e+00   8.20767e+00   1.07548e+01  8.13005e-02   1.76207e+00   1.00314e+00
Si    5.51996e+00   8.19105e+00   2.62285e+00 -7.35157e-01   7.47120e-01   6.44806e-01
Si    8.12268e+00   5.45889e+00   2.71965e+00 -1.49879e+00  -8.40662e-02  -1.45217e-01
Si    6.87134e+00   6.87397e+00   1.21886e+00 -5.81683e-01  -8.98345e-01   1.16653e+00
Si    9.48942e+00   9.56123e+00   1.36782e+00  1.00281e+00  -1.13505e+00  -1.68460e-01
Si    6.84366e+00   9.56046e+00   4.13013e+00 -2.71769e-01  -2.43067e+00  -6.96021e-01
Si    9.49875e+00   6.68801e+00   4.09803e+00  2.60426e-01   2.89241e-01   6.09424e-01
Si    1.09921e+01   1.07258e+01   5.46850e+00 -8.85717e-02  -3.04505e-01  -1.74280e-01
Si    2.80177e+00   2.80715e+00   5.42427e+00 -3.44032e-01  -9.87910e-01  -7.63373e-01
Si    6.34967e-02   2.67464e+00   8.11070e+00  1.06194e+00   3.93912e-01  -3.96719e-01
Si    2.87410e+00  -1.43821e-02   8.15381e+00 -2.42320e+00   1.29801e-01   3.07372e-01
Si    1.50248e+00   1.30123e+00   6.68407e+00 -1.29189e-01   4.41717e-01   1.25595e+00
Si    3.99783e+00   4.10254e+00   6.92865e+00  3.77167e-01   7.14689e-01  -6.10968e-01
Si    1.39431e+00   4.09728e+00   9.60712e+00 -1.74511e+00  -2.61920e-01  -1.61341e+00
Si    3.92853e+00   1.30705e+00   9.67644e+00  1.63974e+00   5.63314e-01  -1.06067e+00
Si    5.45998e+00   1.06921e+01   5.46471e+00 -1.48367e+00   2.60043e+00   1.63809e-01
Si    8.04565e+00   2.80906e+00   5.37260e+00  2.30142e-01  -6.05769e-01   1.45185e+00
Si    5.32638e+00   2.63669e+00   8.16780e+00 -4.10055e-01   2.81356e-01   1.00648e+00
Si    8.03256e+00   5.76729e-02   8.07580e+00  1.49704e+00  -2.41766e-01  -1.49168e+00
Si    6.70026e+00   1.43092e+00   6.73565e+00 -1.13138e-01  -7.15982e-01  -3.29469e-01
Si    9.39512e+00   4.01393e+00   6.94902e+00  1.00762e+00   2.04479e+00  -1.26395e+00
Si    6.70381e+00   3.99741e+00   9.53220e+00 -7.19197e-02   6.10243e-01   6.89704e-01
Si    9.53898e+00   1.27885e+00   9.26414e+00  1.94932e-01   5.24782e-01   2.27908e+00
Si    1.10165e+01   5.49788e+00   5.46985e+00 -2.43460e+00  -3.09226e+00  -5.73477e-01
Si    2.76526e+00   8.11108e+00   5.43084e+00 -3.08726e-01   7.43413e-01  -9.58372e-01
Si    1.09173e+01   8.17521e+00   8.04074e+00  4.86916e-01  -1.16527e+00   1.27185e+00
Si    2.64229e+00   5.52681e+00   8.25914e+00  5.62512e-01  -9.90728e-01  -7.06254e-01
Si    1.40544e+00   6.78403e+00   6.76110e+00  5.36033e-01   9.73525e-01   7.38701e-01
Si    4.05971e+00   9.43742e+00   6.91672e+00  1.32423e+00  -8.85462e-01  -1.85720e+00
Si    1.45968e+00   9.38631e+00   9.41778e+00  1.74993e-01   1.80934e+00   1.30852e+00
Si    4.12855e+00   6.80592e+00   9.42882e+00 -4.83541e-01  -3.81438e-01   1.68006e+00
Si    5.34925e+00   5.42930e+00   5.42893e+00 -5.93887e-02  -4.15130e-01  -2.44645e-01
Si    8.20428e+00   8.16007e+00   5.40623e+00 -3.38342e-01  -5.56777e-01   5.71565e-01
Si    5.44950e+00   8.02576e+00   8.13597e+00  1.16856e+00   2.91428e+00   6.01261e-01
Si    8.14154e+00   5.52179e+00   8.42395e+00 -5.09343e-01  -2.98754e-01  -2.44275e+00
Si    6.74629e+00   6.80435e+00   6.74386e+00  1.62043e+00  -1.10096e+00   3.44899e-01
Si    9.54378e+00   9.44471e+00   6.85380e+00 -1.14491e+00   1.50311e+00  -1.21999e+00
Si    6.85128e+00   9.68353e+00   9.49703e+00 -2.16113e+00  -2.41595e+00   8.47240e-02
Si    9.60457e+00   6.96717e+00   9.56814e+00  7.91575e-01  -1.75333e+00  -4.87095e-01
