64
Lattice="10.862 0 0 0 10.862 0 0 0 10.862 " PBC="1 1 1" Properties=species:S:1:pos:R:3:force:R:3 Energy="-262.41563"
Si    1.07618e+01   2.32641e-01   1.08804e+01  2.96211e-01  -2.12501e+00  -6.18392e-01
Si    2.72448e+00   2.68224e+00  -6.34807e-02 -6.38084e-01   6.18896e-02   1.03544e+00
Si    3.52411e-02   2.60178e+00   3.01471e+00  6.40945e-02   1.20946e+00  -1.57646e+00
Si    2.56368e+00   1.06896e+01   2.62931e+00  3.83442e-01   9.54628e-01   1.63283e+00
Si    1.25276e+00   1.39590e+00   1.44813e+00  1.34121e+00   2.92327e-01  -5.53923e-01
Si    3.97811e+00   4.01692e+00   1.42136e+00  1.92861e+00  -9.22418e-02   1.48284e-01
Si    1.46733e+00   4.07231e+00   4.20089e+00 -1.17266e+00  -8.29065e-01   7.32253e-01
Si    4.10860e+00   1.23415e+00   4.04157e+00 -5.59625e-01   2.35543e-01  -1.32356e+00
Si    5.45001e+00   9.66474e-03   1.08657e+01  7.24159e-01  -1.16676e+00   6.52563e-01
Si    8.15621e+00   2.89881e+00   1.08788e+01 -1.20206e+00  -1.93902e+00  -1.03858e+00
Si    5.63840e+00   2.56139e+00   2.72678e+00 -2.03279e+00   1.11047e+00  -6.36697e-01
Si    8.29286e+00  -1.09118e-01   2.72254e+00 -1.76791e+00  -1.69108e-01  -2.40391e-01
Si    6.98177e+00   1.26244e+00   1.32013e+00 -2.96829e-01   3.67367e-01  -4.11971e-02
Si    9.72882e+00   3.88928e+00   1.31319e+00  3.22150e-01   2.04094e+00   1.16045e+00
Si    6.81317e+00   4.23965e+00   3.91029e+00  8.21256e-02  -1.25223e+00   5.38013e-01
Si    9.35379e+00   1.33985e+00   4.13446e+00  1.94242e+00  -1.24459e+00   3.56601e-01
Si    1.11201e+01   5.37149e+00  -3.64458e-02 -1.61007e+00   2.24432e-01   1.41810e+00
Si    2.51779e+00   8.18031e+00  -1.04141e-01  1.10547e+00  -1.21852e+00   1.22301e+00
Si   -2.33573e-02   8.32572e+00   2.64394e+00 -7.11152e-01  -2.11061e+00   7.25150e-01
Si    2.77482e+00   5.36503e+00   2.94894e+00 -1.22748e+00   7.58756e-01  -3.03844e+00
Si    1.31255e+00   6.82230e+00   1.49150e+00  1.73574e+00  -7.51401e-01  -2.71475e-01
Si    3.98050e+00   9.39810e+00   1.26601e+00  6.01040e-01   6.41700e-01   2.97446e-01
Si    1.09218e+00   9.49250e+00   4.19670e+00  3.30178e+00  -1.41617e-01  -1.59618e-01
Si    3.98053e+00   6.77887e+00   4.16229e+00  1.35228e+00   1.17903e+00   1.42903e+00
Si    5.32180e+00   5.53227e+00   1.07310e-02 -2.13857e+00   3.55180e-01   3.16410e-01
Si    8.13184e+00   8.09356e+00   1.09050e+01 -6.69680e-01   4.51342e-01  -7.87766e-01
Si    5.34584e+00   8.16449e+00   2.82890e+00 -1.42915e+00   2.91044e-02  -8.12864e-01
Si    8.21940e+00   5.44266e+00   2.53495e+00  7.12739e-01   6.60282e-01   1.57945e-01
Si    6.61567e+00   6.89630e+00   1.43638e+00  1.68955e+00  -1.25771e+00  -9.46762e-01
Si    9.52423e+00   9.48220e+00   1.24221e+00 -7.44496e-02   1.25547e+00  -6.65565e-02
Si    6.75064e+00   9.45968e+00   4.05283e+00  1.42199e+00   8.88962e-02  -7.02474e-03
Si    9.52261e+00   6.87836e+00   4.02640e+00  5.29448e-01  -1.39517e+00  -1.03051e+00
Si    1.07429e+01   1.08085e+01   5.54172e+00  5.62417e-01   2.72572e+00  -1.05239e+00
Si    2.87752e+00   2.69363e+00   5.42829e+00 -5.37059e-01  -4.76372e-01  -1.41594e+00
Si    2.79948e-03   2.73050e+00   8.17235e+00 -3.10240e-01   7.84257e-02  -1.70876e+00
Si    2.68786e+00  -1.08800e-01   8.14631e+00  2.71625e-01   3.40977e+00   8.26675e-01
Si    1.44921e+00   1.42759e+00   6.65576e+00 -1.34436e+00  -1.46683e+00   2.32925e+00
Si    4.07875e+00   4.09586e+00   6.66283e+00  1.82038e+00   2.51017e-01   6.62865e-01
Si    1.44590e+00   4.09419e+00   9.38993e+00  2.09017e-01  -1.31532e+00   4.14546e-01
Si    4.23957e+00   1.40395e+00   9.57206e+00 -1.67071e+00  -2.98448e-01  -2.51365e+00
Si    5.47461e+00   1.08325e+01   5.35729e+00  2.40704e-01   2.10278e-01   1.78201e+00
Si    8.10792e+00   2.79715e+00   5.26356e+00 -1.01927e+00   3.63959e-01   1.90845e+00
Si    5.51748e+00   2.77685e+00   8.00696e+00 -1.09416e+00  -1.42868e+00   2.34942e-01
Si    8.33002e+00  -1.19363e-01   7.97360e+00 -1.53092e+00   3.41754e-01   2.27809e+00
Si    6.95656e+00   1.27061e+00   6.80325e+00 -1.30372e+00   1.26402e+00  -2.00941e+00
Si    9.40818e+00   4.13509e+00   6.73541e+00  1.24241e+00  -2.29864e-01   7.78268e-01
Si    6.50352e+00   4.09392e+00   9.55265e+00  3.40708e+00   9.01370e-01   1.83799e-01
Si    9.38281e+00   1.40658e+00   9.46197e+00  4.60186e-01   6.57614e-01  -2.65675e-01
Si    1.09233e+01   5.49762e+00   5.45022e+00 -5.43942e-01   4.31535e-01   2.36495e-01
Si    2.65991e+00   8.15786e+00   5.61673e+00  7.37699e-02   1.29371e+00  -2.26821e+00
Si    1.06705e+01   8.04893e+00   8.20166e+00  2.95170e+00   2.52094e+00  -4.38419e-01
Si    2.67889e+00   5.35196e+00   7.97144e+00  7.50985e-01   1.52508e+00   8.67114e-01
Si    1.35216e+00   6.91726e+00   6.91007e+00 -1.21855e+00  -2.01412e+00  -3.19139e-01
Si    4.05063e+00   9.59964e+00   6.81903e+00  1.56758e+00  -1.63767e+00  -5.70199e-01
Si    1.26712e+00   9.56465e+00   9.52683e+00 -2.21470e+00   3.49663e-01  -7.11312e-01
Si    3.92106e+00   6.91081e+00   9.33377e+00  2.90917e-01  -1.68532e+00   1.29512e+00
Si    5.53473e+00   5.49041e+00   5.42134e+00 -8.33316e-01   1.27472e-01  -4.75027e-02
Si    8.10710e+00   8.03384e+00   5.38014e+00  1.74019e-01   1.61696e+00   1.01240e-01
Si    5.46336e+00   8.16981e+00   8.17596e+00 -8.21578e-01   3.50927e-01  -1.55885e+00
Si    8.24325e+00   5.44547e+00   8.38570e+00 -1.62027e+00  -3.86867e-01  -1.27431e+00
Si    6.86668e+00   6.81360e+00   6.85406e+00 -1.26616e-01  -1.05655e+00   9.16240e-01
Si    9.55389e+00   9.37721e+00   6.68845e+00 -1.37009e+00  -1.48537e+00   4.96977e-01
Si    6.78243e+00   9.50917e+00   9.43073e+00  1.56237e+00   3.74830e-01   8.98458e-01
Si    9.67216e+00   6.79074e+00   9.64946e+00 -2.02965e+00  -1.53742e+00   1.26993e+00
