64
Lattice="10.862 0 0 0 10.862 0 0 0 10.862 " PBC="1 1 1" Properties=species:S:1:pos:R:3:force:R:3 Energy="-263.68704"
Si    1.09798e+01   5.46397e-02   1.09584e+01 -1.83487e+00  -5.23624e-01   2.70199e-01
Si    2.82246e+00   2.70887e+00  -7.23690e-02 -1.73026e+00  -8.17738e-01   6.55082e-01
Si   -1.82046e-01   2.89344e+00   2.71066e+00  1.63723e+00  -2.45763e-01   3.48367e-01
Si    2.67557e+00   1.08980e+01   2.76462e+00  5.25196e-01   5.16173e-01  -3.48175e-01
Si    1.27385e+00   1.51596e+00   1.47564e+00  1.53001e+00  -7.95839e-02  -7.33598e-01
Si    4.05840e+00   4.06810e+00   1.26120e+00  1.58301e+00   8.38674e-01  -3.15882e-01
Si    1.47332e+00   4.02265e+00   4.08315e+00 -6.57369e-01   6.83884e-01  -1.94887e+00
Si    4.18336e+00   1.42511e+00   4.01440e+00 -8.73699e-01  -6.47892e-01  -3.44563e-01
Si    5.48727e+00   1.68337e-02   1.08651e+01  3.89502e-01  -5.43546e-01   6.12574e-02
Si    8.16061e+00   2.73800e+00   1.08001e+01  1.35518e+00  -1.57577e+00   1.22028e+00
Si    5.45583e+00   2.80196e+00   2.58175e+00 -6.13551e-01  -1.73022e-01   8.46290e-01
Si    8.11084e+00   2.63820e-02   2.88067e+00 -5.41839e-01  -3.73291e-01  -1.91860e+00
Si    6.76816e+00   1.38888e+00   1.40363e+00  1.45664e+00  -2.98190e-01  -7.82969e-01
Si    9.47316e+00   4.22745e+00   1.25260e+00 -4.37636e-01  -1.26339e+00   3.86279e-02
Si    6.69679e+00   4.17747e+00   3.96659e+00 -4.22178e-02  -7.14509e-01   1.76902e+00
Si    9.50039e+00   1.42724e+00   4.06368e+00  2.77949e-01  -1.18040e+00   1.03486e+00
Si    1.09713e+01   5.39502e+00  -2.81631e-02 -1.04097e-01   1.81429e+00   3.25249e-01
Si    2.75154e+00   8.14833e+00  -9.59219e-03 -1.28140e+00   2.22206e+00   1.51309e+00
Si   -1.60673e-02   8.08914e+00   2.60267e+00 -3.56549e-01   1.48471e+00   2.09783e+00
Si    2.95555e+00   5.37241e+00   2.78071e+00 -1.62785e+00   2.03666e+00   8.62614e-01
Si    1.46624e+00   6.85426e+00   1.42303e+00  6.22819e-01  -2.39103e+00  -6.80332e-01
Si    4.10325e+00   9.56843e+00   1.32950e+00 -1.05219e+00  -1.89227e-01   5.44926e-01
Si    1.37895e+00   9.51087e+00   4.16991e+00 -6.33223e-01  -1.08667e+00  -2.54790e+00
Si    4.15808e+00   6.95777e+00   4.36413e+00 -1.58896e+00  -1.44542e+00  -1.39397e+00
Si    5.46675e+00   5.54241e+00  -1.85057e-02 -4.91825e-02  -1.37998e+00  -8.96893e-01
Si    8.09017e+00   8.18019e+00   1.08042e+01  4.87564e-01  -1.14169e+00   2.93186e-01
Si    5.30356e+00   8.12732e+00   2.74377e+00  7.72126e-01  -1.86432e-01  -9.17515e-01
Si    8.13918e+00   5.42715e+00   2.69322e+00  6.26356e-01   1.08724e+00   5.68020e-01
Si    6.76075e+00   6.78706e+00   1.41462e+00  1.96678e-01   1.11232e+00  -3.27026e-01
Si    9.38744e+00   9.56758e+00   1.32062e+00  1.09292e+00   2.05460e-02   6.92074e-01
Si    6.70514e+00   9.36481e+00   4.01684e+00  7.81685e-01   9.09747e-01   1.44707e+00
Si    9.63119e+00   6.67440e+00   4.15787e+00  2.59602e-01  -4.42096e-01  -1.71421e+00
Si    1.08711e+01   1.07166e+01   5.43200e+00 -8.53858e-01   2.96409e+00  -1.21730e+00
Si    2.78620e+00   2.74120e+00   5.32083e+00  2.02869e-02  -1.21328e+00   2.27150e+00
Si    8.90973e-02   2.69936e+00   8.06995e+00 -1.66371e+00   1.10740e-01   8.81101e-02
Si    2.51513e+00  -6.70858e-02   8.26871e+00  1.92276e+00   6.84441e-01  -1.77066e+00
Si    1.28502e+00   1.30081e+00   6.66188e+00  1.90123e+00   3.41274e-01   6.05722e-01
Si    3.96836e+00   4.13234e+00   6.90654e+00  3.28346e-01  -6.65195e-01   2.51135e-02
Si    1.40841e+00   4.06891e+00   9.48947e+00  1.20891e-01  -8.65033e-01   2.68407e-01
Si    4.13581e+00   1.24921e+00   9.50302e+00 -1.50792e+00   1.26705e-01  -2.25648e-01
Si    5.26376e+00   1.07197e+01   5.40100e+00  6.37456e-01  -3.32564e-01  -8.92397e-01
Si    7.97963e+00   2.62113e+00   5.34625e+00  3.75052e-01   1.57321e+00  -1.16530e+00
Si    5.35862e+00   2.65531e+00   8.16669e+00  1.44761e+00   3.97257e-01  -9.93034e-01
Si    8.15317e+00   6.94575e-02   7.97341e+00 -8.93629e-01  -3.74185e-01   1.53506e+00
Si    6.63451e+00   1.25996e+00   6.56709e+00 -8.56953e-02   5.54070e-01   2.40425e+00
Si    9.44075e+00   3.99292e+00   6.59134e+00  6.93114e-01  -8.88272e-01   1.45466e+00
Si    6.94903e+00   4.01695e+00   9.46178e+00 -3.29442e+00   9.71490e-01  -4.83435e-01
Si    9.59416e+00   1.24721e+00   9.50452e+00 -5.05718e-01   1.68260e+00  -6.69713e-01
Si    1.10404e+01   5.26121e+00   5.47824e+00 -1.08178e+00   1.48033e+00   1.14524e-01
Si    2.60154e+00   8.23114e+00   5.57182e+00 -8.24420e-02  -2.10744e+00   1.14209e-02
Si    1.08486e+01   8.13158e+00   8.18787e+00 -7.89802e-01   1.00911e+00  -1.46723e-01
Si    2.77710e+00   5.53077e+00   8.40460e+00 -9.07181e-01   6.12024e-02  -2.31325e+00
Si    1.28554e+00   6.77082e+00   6.93571e+00  1.65281e+00  -6.63753e-01  -5.01787e-01
Si    3.98794e+00   9.39323e+00   6.85078e+00 -2.48220e-01   2.13646e+00   1.10445e+00
Si    1.25214e+00   9.46795e+00   9.59119e+00  7.03072e-01  -6.69474e-01   4.70823e-01
Si    4.05977e+00   7.00915e+00   9.56692e+00  2.34301e+00  -2.01884e+00  -6.74636e-01
Si    5.38436e+00   5.45321e+00   5.61768e+00  4.67284e-01  -7.29347e-01  -1.45053e+00
Si    8.23802e+00   8.03828e+00   5.33997e+00 -7.51024e-01   1.27338e+00   1.65909e+00
Si    5.48247e+00   8.17430e+00   8.11498e+00 -3.29566e-01  -8.96501e-01  -1.15569e-01
Si    8.14420e+00   5.32353e+00   8.00590e+00  1.65519e+00   5.78836e-01   1.06891e+00
Si    6.83721e+00   6.71734e+00   6.79956e+00  5.28810e-02   1.51096e+00  -1.68699e-01
Si    9.56757e+00   9.58902e+00   6.80188e+00 -1.21762e+00  -2.97224e+00  -3.20131e-01
Si    6.77431e+00   9.49108e+00   9.43899e+00  8.65570e-01   1.61385e+00  -2.90283e-01
Si    9.54218e+00   6.75445e+00   9.44527e+00 -1.14355e+00  -7.00896e-01   5.99503e-01
