64
Lattice="10.862 0 0 0 10.862 0 0 0 10.862 " PBC="1 1 1" Properties=species:S:1:pos:R:3:force:R:3 Energy="-263.92345"
Si    1.08722e+01   2.02601e-03   1.08059e+01 -7.25656e-01  -4.61206e-02   8.25504e-01
Si    2.95405e+00   2.68842e+00  -1.32743e-01 -2.87775e+00   1.22097e+00   6.36551e-01
Si   -7.48535e-02   2.57942e+00   2.54283e+00  1.90787e+00  -1.42195e-01   1.87876e+00
Si    2.64465e+00   1.09265e+01   2.84267e+00  5.79936e-01  -5.59994e-01  -1.18050e+00
Si    1.46978e+00   1.36271e+00   1.22721e+00 -1.87622e-01  -1.24636e-01   1.60393e-01
Si    3.99329e+00   4.14453e+00   1.35011e+00  1.02351e+00  -7.54796e-01   1.93594e+00
Si    1.34038e+00   3.96878e+00   4.06653e+00 -3.65514e-01   7.26766e-01  -1.71355e+00
Si    4.06523e+00   1.35811e+00   4.14585e+00 -7.18547e-02   4.38160e-01  -1.42333e+00
Si    5.33465e+00  -1.22036e-01   1.07663e+01  1.10289e+00   1.97469e+00   2.90738e-02
Si    8.05453e+00   2.82957e+00   1.07972e+01  1.24605e+00  -2.61727e-01   3.74916e-01
Si    5.45548e+00   2.70863e+00   2.77036e+00 -1.34816e+00   4.02509e-02  -1.29853e+00
Si    7.95845e+00  -9.36306e-02   2.56969e+00  5.87505e-01   8.33223e-01   1.51496e+00
Si    6.67180e+00   1.39630e+00   1.23491e+00  1.09834e-01  -5.34807e-01   4.65242e-03
Si    9.66267e+00   4.08384e+00   1.32345e+00 -2.32989e+00   5.39354e-01  -8.77195e-01
Si    6.80188e+00   4.04774e+00   4.03933e+00  1.33902e+00   1.05818e-01  -3.90045e-01
Si    9.53445e+00   1.14888e+00   4.01322e+00 -1.13395e+00   1.02836e+00  -3.06040e-01
Si    1.09248e+01   5.53108e+00  -5.84316e-03 -5.33099e-01  -2.05090e-01   1.75707e+00
Si    2.61995e+00   8.24401e+00   1.56379e-01  9.53787e-01   1.59415e-01  -2.03987e+00
Si   -4.63613e-02   8.19061e+00   2.70459e+00  7.92857e-01  -5.23569e-02   1.98221e+00
Si    2.75195e+00   5.52810e+00   2.87357e+00 -1.34295e+00  -9.76967e-01  -1.48295e+00
Si    1.33106e+00   6.88200e+00   1.45440e+00  4.51826e-01  -1.06747e+00   1.87958e-01
Si    4.10451e+00   9.59663e+00   1.38140e+00 -1.63786e+00  -8.17140e-01   1.67784e+00
Si    1.31574e+00   9.50091e+00   4.19229e+00  8.38573e-01  -9.56934e-01  -5.21262e-01
Si    4.14893e+00   6.81816e+00   4.13286e+00 -7.06213e-02  -2.31201e-01   9.20447e-01
Si    5.36336e+00   5.54072e+00   1.89362e-01  2.08119e-01  -4.67457e-01  -1.53116e+00
Si    8.23285e+00   8.10674e+00   1.08131e+01 -1.89681e-01   4.90176e-01   4.77643e-01
Si    5.41537e+00   8.17918e+00   2.77453e+00  8.43287e-01  -6.73365e-01  -1.53546e+00
Si    8.25391e+00   5.45242e+00   2.70440e+00 -1.32462e-02  -3.29470e-01   4.57710e-01
Si    6.89790e+00   6.77489e+00   1.30552e+00 -5.92747e-01   1.32186e+00   2.03518e+00
Si    9.51763e+00   9.48382e+00   1.42894e+00 -5.11723e-01   6.47767e-01  -2.32996e+00
Si    6.66100e+00   9.51784e+00   4.15054e+00  8.07706e-01   2.44337e-01  -9.47732e-01
Si    9.56427e+00   6.85615e+00   4.16242e+00  2.45998e-01  -6.12152e-01  -5.04701e-01
Si    1.08401e+01   1.07584e+01   5.54305e+00 -8.39807e-01   7.32403e-01  -7.38353e-02
Si    2.73070e+00   2.73967e+00   5.33622e+00  9.82530e-02  -2.11610e-01   2.92236e+00
Si   -5.40698e-02   2.72965e+00   8.14045e+00 -8.16921e-01   3.58138e-01   4.72322e-01
Si    2.55391e+00   7.47680e-02   8.13168e+00  1.06671e+00   1.47575e+00   6.02101e-01
Si    1.26040e+00   1.42706e+00   6.76733e+00  7.93245e-01   1.74887e-02  -6.94616e-01
Si    4.14160e+00   4.03517e+00   6.92700e+00 -5.91902e-01  -1.52128e+00  -1.64291e+00
Si    1.20553e+00   4.12632e+00   9.60009e+00  3.22039e+00  -1.64637e+00  -1.76234e+00
Si    4.19738e+00   1.38056e+00   9.36966e+00 -3.90688e-01  -1.15296e+00  -5.63708e-01
Si    5.24713e+00   1.08056e+01   5.42634e+00  1.25663e+00   4.01158e-01   1.57038e+00
Si    8.26575e+00   2.78215e+00   5.37058e+00 -6.93551e-01  -2.12572e+00  -9.60736e-01
Si    5.64322e+00   2.71267e+00   8.09721e+00 -2.47708e-01   3.38407e-01   5.46189e-01
Si    7.99253e+00  -7.53032e-02   8.19203e+00  8.98939e-01   6.77144e-01  -5.26561e-01
Si    6.85854e+00   1.27324e+00   6.64758e+00 -5.10625e-01   6.22611e-01   9.94413e-02
Si    9.51852e+00   4.11205e+00   6.70745e+00  8.17205e-01   1.42684e+00   1.01281e+00
Si    6.72795e+00   4.33740e+00   9.56060e+00  3.48950e-01  -9.90783e-01  -1.17253e+00
Si    9.42424e+00   1.29277e+00   9.47268e+00 -2.91210e-01   1.04743e+00   1.27767e-01
Si    1.11063e+01   5.48435e+00   5.44808e+00 -3.06100e+00  -1.41559e+00  -1.22600e+00
Si    2.82356e+00   8.15731e+00   5.55804e+00 -1.42110e-01   1.00362e+00  -1.54793e+00
Si    1.10120e+01   7.93801e+00   8.15904e+00 -1.97907e+00   9.93898e-01  -7.59223e-01
Si    2.81238e+00   5.36951e+00   8.18587e+00 -1.52047e+00   1.56150e-01   9.20579e-01
Si    1.57530e+00   6.69675e+00   6.67754e+00  1.25401e-02   5.35105e-01   2.98069e+00
Si    3.95397e+00   9.60799e+00   6.99229e+00  1.93136e+00  -1.88992e+00  -7.24565e-01
Si    1.30772e+00   9.57061e+00   9.42337e+00  1.84904e-01  -1.69479e+00   1.25868e+00
Si    4.03066e+00   6.75715e+00   9.60956e+00 -1.61082e-01   1.43871e+00   2.48251e-01
Si    5.37005e+00   5.19499e+00   5.38711e+00  6.13539e-01   2.42732e+00   1.00689e-01
Si    8.16971e+00   8.27417e+00   5.41115e+00 -1.13874e+00  -1.55683e+00  -8.50903e-01
Si    5.51210e+00   8.04299e+00   8.21336e+00 -1.50467e+00   6.82760e-02  -1.29208e+00
Si    8.07408e+00   5.61065e+00   7.99070e+00  8.00604e-01  -2.75840e+00   7.58166e-01
Si    6.79736e+00   6.74727e+00   6.55446e+00 -1.47134e+00   1.14290e+00   5.55026e-01
Si    9.34358e+00   9.47545e+00   6.84622e+00  2.79918e+00  -5.52401e-01   1.62361e+00
Si    6.75609e+00   9.43122e+00   9.53717e+00  4.13885e-01  -5.99019e-01   3.01072e-01
Si    9.45325e+00   6.61545e+00   9.52538e+00  9.98114e-01   2.29506e+00  -1.07674e+00
